<?xml version= "1.0" encoding="UTF-8" standalone="yes"?>
<VTKFile type="StructuredGrid" version="0.1" byte_order="LittleEndian">
<StructuredGrid WholeExtent="0 100 0 0 0 100"> 
<PointData  Scalars= "ScalarData">
<DataArray type = "Float64" Name = "Interfaces" NumberOfComponents="1" format="ascii">
1
1
1
1
1
1
1
1
1
1
1
1
1
1
1
1.00001
1.26605
1.87245
1.80427
1.21059
1.00037
1
1
1
1
1
1
1
1
1
1
1
1
1
1
1.26649
1.90523
1.72046
1.13604
1
1
1
1
1
1
1
1
1
1
1
1
1
1
1
1
1
1
1
1.00008
1.11485
1.65618
1.96906
1.4109
1.05604
1.01126
1.07309
1.19107
1.37175
1.62915
1.89016
1.99978
1.87546
1.62054
1.37529
1.19775
1.07257
1.00009
1.00004
1.00001
1
1
1
1
1
1
1
1
1.28731
1.9036
1.76477
1.18783
1.0003
1
1
1
1
1
1
1
1
1
1
1
1
1
1
1
1
1
1
1
1
1
1
1
1.00002
1.05931
1.50757
1.99963
1.53569
1.06912
1.00012
1
1
1
1
1
1
1
1
1
1
1
1
1
1
1.22822
1.86149
1.77591
1.16863
1
1
1
1
1
1
1
1
1
1
1
1
1
1
1
1
1
1
1
1.00012
1.18915
1.79541
1.86253
1.24659
1
1
1
1
1.00088
1.10777
1.28339
1.52808
1.79889
1.97909
1.96987
1.79956
1.57212
1.36607
1.208
1.08521
1.00108
1
1
1
1
1
1
1
1.36829
2.18368
2.14905
1.39432
1.06023
1.00009
1
1
1
1
1
1
1
1
1
1
1
1
1
1
1
1
1
1
1
1
1
1
1.00004
1.21505
1.79897
1.88519
1.28374
1.00054
1
1
1
1
1
1
1
1
1
1
1
1
1
1
1
1.18788
1.80608
1.83397
1.20741
1
1
1
1
1
1
1
1
1
1
1
1
1
1
1
1
1
1
1
1.00017
1.2742
1.9091
1.72337
1.14234
1
1
1
1
1
1
1.0001
1.06448
1.20526
1.399
1.63802
1.86244
1.98971
1.96927
1.81887
1.60244
1.38679
1.21265
1.07838
1
1
1
1.00002
1.19133
1.7094
2.72317
2.78185
1.90791
1.4597
1.23593
1.08678
1.00011
1
1
1
1
1
1
1
1
1
1
1
1
1
1
1
1
1
1
1
1.00002
1.03992
1.45365
1.99028
1.60389
1.10211
1.00018
1
1
1
1
1
1
1
1
1
1
1
1
1
1
1
1.14575
1.73929
1.88997
1.25146
1
1
1
1
1
1
1
1
1
1
1
1
1
1
1
1
1
1
1
1.00023
1.3647
1.9781
1.58454
1.06687
1
1
1
1
1
1
1
1
1.00002
1.00916
1.10599
1.24415
1.41805
1.63006
1.84075
1.9806
1.97717
1.81492
1.56651
1.33553
1.17166
1.11381
1.26446
1.64059
2.00983
2.29351
2.19722
1.99461
1.98832
1.83435
1.59293
1.3668
1.19643
1.071
1.00009
1
1
1
1
1
1
1
1
1
1
1
1
1
1
1
1
1.00006
1.18414
1.74866
1.92469
1.3271
1.00065
1
1
1
1
1
1
1
1
1
1
1
1
1
1
1
1
1.1024
1.66204
1.93953
1.301
1
1
1
1
1
1
1
1
1
1
1
1
1
1
1
1
1
1
1.00001
1.01401
1.46288
2
1.46413
1.01498
1
1
1
1
1
1
1
1
1
1
1
1.00002
1.01127
1.09817
1.22452
1.39284
1.61946
1.86069
1.99722
1.92054
1.69923
1.72497
1.88146
1.99737
1.79339
1.43944
1.30494
1.38162
1.60632
1.84058
1.98649
1.96659
1.79664
1.56251
1.34529
1.17927
1.05874
1.00009
1.15712
1.04329
1
1
1
1
1
1
1
1
1
1
1.00002
1.03021
1.40671
1.96854
1.67042
1.1344
1.00026
1
1
1
1
1
1
1
1
1
1
1
1
1
1
1
1
1.05955
1.57718
1.97741
1.357
1
1
1
1
1
1
1
1
1
1
1
1
1
1
1
1
1
1
1.00003
1.05752
1.56935
1.98173
1.37031
1
1
1
1
1
1
1
1
1
1
1
1
1
1
1
1.00001
1.00353
1.09861
1.2598
1.50663
1.80537
2.16877
2.70321
2.58862
1.84206
1.3629
1.07009
1.00057
1.00479
1.09393
1.23169
1.4143
1.64326
1.86651
1.99327
1.95339
1.76897
1.53109
1.3186
1.73134
1.49055
1.2829
1.12522
1.01768
1
1
1
1
1
1
1.00001
1.02759
1.23669
1.76902
1.99229
1.41749
1.01973
1.00004
1
1
1
1
1
1
1
1
1
1
1
1
1
1
1
1
1.02156
1.49101
1.99785
1.42276
1
1
1
1
1
1
1
1
1
1
1
1
1
1
1
1
1
1
1.00006
1.11017
1.67495
1.93386
1.29598
1
1
1
1
1
1
1
1
1
1
1
1
1
1
1
1
1
1
1.00017
1.08239
1.30623
1.8721
2.75937
2.52206
1.56326
1.10224
1.00018
1
1.00001
1.00022
1.00053
1.01259
1.10796
1.24977
1.43836
1.67182
1.89071
1.99845
1.93291
1.91879
1.99975
1.89881
1.66889
1.41451
1.20868
1.06415
1
1
1.00002
1.08404
1.22656
1.41454
1.84353
2.5969
2.23425
1.32709
1.00052
1
1
1
1
1
1
1
1
1
1
1
1
1
1
1
1
1
1.00004
1.41208
1.99605
1.50438
1.027
1
1
1
1
1
1
1
1
1
1
1
1
1
1
1
1
1
1.00008
1.16596
1.77165
1.86568
1.23185
1
1
1
1
1
1
1
1
1
1
1
1
1
1
1
1
1
1
1
1.00025
1.15343
1.69279
2.65845
2.53656
1.55977
1.09435
1.00004
1
1
1
1
1.00003
1.00026
1.0006
1.02192
1.12345
1.27281
1.47154
1.70944
1.30214
1.51479
1.76221
1.95909
1.98201
1.79264
1.50926
1.26737
1.2226
1.33426
1.5744
1.82132
1.97635
2.2825
2.84799
2.38599
1.4423
1.03992
1.00007
1
1
1
1
1
1
1
1
1
1
1
1
1
1
1
1
1
1.34395
1.97014
1.59753
1.06973
1
1
1
1
1
1
1
1
1
1
1
1
1
1
1
1
1
1.0001
1.22333
1.85505
1.7838
1.17356
1
1
1
1
1
1
1
1
1
1
1
1
1
1
1
1
1
1
1.00021
1.11624
1.38363
1.9569
3.14554
3.18285
1.97756
1.40119
1.1261
1.00004
1
1
1
1
1
1
1.00005
1.00029
1.00062
1.03523
1.14457
1.00012
1.05293
1.17734
1.36239
1.62417
1.89559
1.99645
2.0728
2.07231
1.98457
1.99719
1.86359
1.64382
1.56754
1.82228
2.07423
1.75309
1.22408
1.00032
1
1
1
1
1
1
1
1
1
1
1
1
1
1
1
1
1
1.28141
1.92147
1.69362
1.11991
1
1
1
1
1
1
1
1
1
1
1
1
1
1
1
1
1
1.00011
1.28245
1.92219
1.69305
1.11952
1
1
1
1
1
1
1
1
1
1
1
1
1
1
1
1
1.00001
1.00433
1.18738
1.50357
1.83967
2.39528
3.58705
3.66491
2.46264
1.88211
1.54858
1.20755
1.00623
1
1
1
1
1
1
1
1
1.00007
1.00031
1
1
1.00002
1.00021
1.11139
1.31723
1.74188
2.62274
2.90467
2.06011
1.5135
1.26694
1.11659
1.05246
1.18925
1.64244
1.99745
1.53728
1.09085
1.00011
1
1
1
1
1
1
1
1
1
1
1
1
1
1
1
1
1.22155
1.85289
1.78584
1.1749
1
1
1
1
1
1
1
1
1
1
1
1
1
1
1
1
1
1.00012
1.34437
1.97011
1.59823
1.06992
1
1
1
1
1
1
1
1
1
1
1
1
1
1
1
1.00007
1.05429
1.29462
1.68033
1.97637
1.94501
2.16328
2.72533
2.73826
2.16104
1.91033
1.9931
1.69889
1.27541
1.02555
1
1
1
1
1
1
1
1
1
1
1
1
1
1.00003
1.01177
1.32509
2.11122
2.333
1.52183
1.09027
1.00043
1.00012
1.00005
1.0002
1.27542
1.83343
1.88695
1.30962
1.00032
1
1
1
1
1
1
1
1
1
1
1
1
1
1
1
1
1.16339
1.76736
1.86911
1.23473
1
1
1
1
1
1
1
1
1
1
1
1
1
1
1
1
1
1.00012
1.41232
1.99594
1.50578
1.02738
1
1
1
1
1
1
1
1
1
1
1
1
1
1
1.00011
1.103
1.4044
1.82797
1.99134
1.73049
1.45356
1.58505
1.98854
1.99796
1.59167
1.41823
1.69043
1.99337
1.76881
1.29811
1.02439
1.00001
1
1
1
1
1
1
1
1
1
1
1
1
1.00005
1.2002
1.79778
1.87188
1.26094
1.00035
1
1
1
1
1.06196
1.47307
1.98763
1.64008
1.13156
1.00013
1
1
1
1
1
1
1
1
1
1
1
1
1
1
1
1.10696
1.66815
1.93805
1.30146
1
1
1
1
1
1
1
1
1
1
1
1
1
1
1
1
1.00001
1.02255
1.4926
1.99786
1.42381
1
1
1
1
1
1
1
1
1
1
1
1
1
1
1.00013
1.14772
1.49944
1.92045
1.92618
1.53436
1.21279
1.07324
1.25048
1.81519
1.89287
1.31733
1.07459
1.20562
1.58273
1.98174
1.77192
1.27993
1.01027
1
1
1
1
1
1
1
1
1
1
1
1
1.00001
1.21621
1.83779
1.81405
1.20072
1.00023
1
1
1
1
1.00007
1.1892
1.73718
1.94423
1.3704
1.0142
1.00001
1
1
1
1
1
1
1
1
1
1
1
1
1
1
1.0543
1.56088
1.98498
1.38078
1
1
1
1
1
1
1
1
1
1
1
1
1
1
1
1
1.00001
1.06412
1.58412
1.97625
1.35647
1
1
1
1
1
1
1
1
1
1
1
1
1
1.00014
1.19168
1.58464
1.97247
1.84333
1.40889
1.10997
1.00008
1.00014
1.16167
1.73562
1.91428
1.29202
1.00006
1
1.161
1.56859
1.98707
1.73714
1.24514
1.0001
1
1
1
1
1
1
1
1
1
1
1
1
1.25247
1.88849
1.74655
1.15262
1.00017
1
1
1
1
1
1.02506
1.39679
1.9603
1.70381
1.165
1.00013
1
1
1
1
1
1
1
1
1
1
1
1
1
1
1.01205
1.4563
1.99975
1.4836
1.0263
1
1
1
1
1
1
1
1
1
1
1
1
1
1
1
1.00002
1.1171
1.68165
1.93333
1.29771
1
1
1
1
1
1
1
1
1
1
1
1.00001
1.01243
1.24011
1.66478
1.99662
1.75799
1.31942
1.05756
1.00005
1
1.00007
1.1051
1.65758
1.94768
1.3164
1.00007
1
1
1.16709
1.59975
1.99657
1.6875
1.21105
1.00009
1
1
1
1
1
1
1
1
1
1
1
1.30063
1.93817
1.66742
1.10632
1.00012
1
1
1
1
1
1.00003
1.14824
1.67601
1.97253
1.42144
1.03481
1.00003
1
1
1
1
1
1
1
1
1
1
1
1
1
1.00002
1.36838
1.97505
1.61328
1.09144
1
1
1
1
1
1
1
1
1
1
1
1
1
1
1
1.00002
1.18701
1.7822
1.873
1.24656
1
1
1
1
1
1
1
1
1
1
1.00002
1.0383
1.29497
1.74013
1.99818
1.67529
1.24945
1.01964
1.00003
1
1
1.00004
1.06046
1.57665
1.97871
1.36116
1.00009
1
1
1
1.18929
1.64726
1.99992
1.63214
1.17816
1.00007
1
1
1
1
1
1
1
1
1
1
1.3587
1.97765
1.57895
1.06109
1.00007
1
1
1
1
1
1
1.00452
1.34717
1.92894
1.76045
1.20279
1.00014
1
1
1
1
1
1
1
1
1
1
1
1
1
1
1.30588
1.91662
1.75817
1.19847
1
1
1
1
1
1
1
1
1
1
1
1
1
1
1
1.0361
1.35585
1.97201
1.82018
1.20934
1
1
1
1
1
1
1
1
1
1.00003
1.06104
1.3473
1.80472
1.98231
1.60075
1.19805
1.0001
1.00001
1
1
1
1.00001
1.02301
1.49585
1.99725
1.41851
1.00015
1
1
1
1.00001
1.21876
1.70348
1.99246
1.56812
1.14195
1.00005
1
1
1
1
1
1
1
1
1
1.42987
1.99851
1.48777
1.02124
1.00002
1
1
1
1
1
1
1.00001
1.11961
1.6192
1.9919
1.48277
1.06198
1.00004
1
1
1
1
1
1
1
1
1
1
1
1
1.00233
1.28256
1.88987
2.0866
1.55282
1.24288
1.20527
1.19541
1.19382
1.19444
1.19545
1.19643
1.1975
1.19904
1.2018
1.20699
1.21668
1.23422
1.2655
1.32308
1.43342
1.92131
2.68594
2.16586
1.30958
1
1
1
1
1
1
1
1
1.00003
1.07845
1.38847
1.85214
1.95717
1.53709
1.16014
1.00007
1
1
1
1
1
1
1.00013
1.42348
1.99804
1.48843
1.01955
1.00001
1
1
1
1.00003
1.26228
1.77125
1.96833
1.49446
1.10345
1.00004
1
1
1
1
1
1
1
1.03477
1.5218
1.9934
1.4027
1.00036
1
1
1
1
1
1
1
1
1.00015
1.30101
1.88442
1.82496
1.25465
1.00014
1
1
1
1
1
1
1
1
1
1
1.04324
1.12308
1.241
1.59225
2.49667
2.96107
2.23657
1.82419
1.81148
1.81052
1.81272
1.81516
1.81715
1.81875
1.82035
1.82258
1.82648
1.83368
1.8466
1.86835
1.90179
1.94612
1.98828
2.2701
2.78075
2.45822
1.65131
1.22081
1.0168
1
1
1
1
1
1.00003
1.09325
1.42009
1.88397
1.93163
1.48741
1.13072
1.00005
1
1
1
1
1
1
1
1.00009
1.36503
1.98142
1.56462
1.05303
1.00003
1
1
1
1.00001
1.02374
1.32475
1.84448
1.92354
1.41723
1.06633
1.00002
1
1
1
1
1
1.00001
1.08611
1.62915
1.95769
1.32634
1.00027
1
1
1
1
1
1
1
1
1
1.09242
1.55736
2
1.56538
1.11224
1.00006
1
1
1
1
1.00397
1.06558
1.15368
1.25779
1.3763
1.51437
1.66063
1.7973
2.23942
3.41261
3.51841
2.34253
1.87968
1.85181
1.83761
1.83014
1.82591
1.82332
1.82152
1.81986
1.8176
1.81367
1.80631
1.79271
1.76862
1.72829
1.66606
1.58241
1.51234
1.65644
1.88338
1.99831
1.72855
1.34121
1.09589
1
1
1
1.00003
1.11203
1.45109
1.90757
1.9092
1.45128
1.10938
1.00004
1
1
1
1
1
1
1
1
1.00006
1.3169
1.95241
1.6371
1.08904
1.00005
1
1
1
1
1.00002
1.05705
1.39864
1.91007
1.86231
1.34512
1.03376
1.00001
1
1
1
1
1.00003
1.14887
1.74243
1.88999
1.2531
1.00017
1
1
1
1
1
1
1
1
1
1.00011
1.26656
1.83882
1.8922
1.42136
1.14055
1.10882
1.14461
1.21007
1.30072
1.42017
1.57562
1.74463
1.89048
1.97996
1.99812
1.96
1.90642
2.23768
2.93051
2.57508
1.66157
1.29064
1.23508
1.21449
1.20584
1.20176
1.19958
1.1982
1.19701
1.19545
1.19277
1.18784
1.17901
1.16417
1.14127
1.1099
1.07421
1.03777
1.06951
1.27562
1.64109
1.96992
1.90026
1.54477
1.23811
1.06189
1.00305
1.152
1.4971
1.93166
1.88636
1.42294
1.09399
1.00003
1
1
1
1
1
1
1
1
1
1.00004
1.27721
1.91768
1.69927
1.12261
1.00007
1
1
1
1
1
1.00004
1.09422
1.47455
1.95777
1.79455
1.28255
1.007
1.00007
1
1
1
1.00006
1.22361
1.85194
1.79133
1.18039
1.00011
1
1
1
1
1
1
1
1
1
1
1.0967
1.64513
2.44999
2.24743
1.73842
1.654
1.72936
1.83294
1.93378
1.99465
1.98337
1.89328
1.74814
1.58605
1.44417
1.34807
1.3096
1.55561
2.06834
1.93192
1.31084
1
1
1
1
1
1
1
1
1
1
1
1
1
1
1
1
1
1
1.00005
1.15314
1.44902
1.82416
1.99918
1.80069
1.49681
1.45638
1.63467
1.96279
1.85525
1.39441
1.08084
1.00003
1
1
1
1
1
1
1
1
1
1
1.00003
1.24496
1.88254
1.74954
1.15191
1.00008
1
1
1
1
1
1
1.00006
1.13106
1.5455
1.98655
1.72423
1.22864
1.17393
1.00004
1
1
1.00013
1.31759
1.94445
1.666
1.10894
1.00006
1
1
1
1
1
1
1
1
1
1
1.09559
1.68247
2.73936
2.74931
2.11029
1.95548
1.90393
1.81286
1.68226
1.52973
1.3831
1.25981
1.15518
1.06961
1.01083
1
1.00004
1.17428
1.71477
1.94544
1.35681
1
1
1
1
1
1
1
1
1
1
1
1
1
1
1
1
1
1
1
1.00002
1.05698
1.26205
1.58872
1.91298
2.16043
2.50016
2.38503
1.80929
1.36447
1.06759
1.00002
1
1
1
1
1
1
1
1
1
1
1
1.00001
1.21822
1.84887
1.79031
1.17755
1.0001
1
1
1
1
1
1
1
1.00008
1.16682
1.61584
1.99967
1.64017
1.5233
1.10812
1.00001
1.00002
1.02673
1.44907
1.99691
1.52518
1.04362
1.00002
1
1
1
1
1
1
1
1
1.00001
1.04052
1.34249
1.85268
2.1585
1.77215
1.41548
1.33441
1.26898
1.19541
1.1174
1.04539
1
1
1
1
1
1
1.00002
1.06681
1.56242
1.9905
1.40838
1.00003
1
1
1
1
1
1
1
1
1
1
1
1
1
1
1
1
1
1
1
1
1.00005
1.11686
1.35896
1.93674
2.85134
2.38622
1.43412
1.0613
1.00002
1
1
1
1
1
1
1
1
1
1
1
1
1
1.19386
1.81472
1.82642
1.20226
1.00011
1
1
1
1
1
1
1
1
1.0001
1.21272
1.7117
1.98479
1.88386
1.37921
1.07666
1.02123
1.16258
1.64787
1.97849
1.39232
1.00002
1
1
1
1
1
1
1
1
1.00002
1.04499
1.32086
1.79414
1.97402
1.54253
1.15106
1.0027
1
1
1
1
1
1
1
1
1
1
1
1
1.00627
1.42737
1.99606
1.51898
1.0381
1
1
1
1
1
1
1
1
1
1
1
1
1
1
1
1
1
1
1
1
1
1.00002
1.03484
1.4103
2.13978
1.93826
1.22329
1.00002
1
1
1
1
1
1
1
1
1
1
1
1
1
1
1.16807
1.77473
1.86369
1.23081
1.00012
1
1
1
1
1
1
1
1
1.00001
1.00886
1.31797
1.86559
2.46261
2.13522
1.57689
1.4235
1.67642
2.28214
2.10175
1.3001
1
1
1
1
1
1
1
1
1.00003
1.07216
1.35981
1.8172
1.97328
1.55539
1.15634
1
1
1
1
1
1
1
1
1
1
1
1
1
1
1.00011
1.31754
1.94792
1.65572
1.10268
1
1
1
1
1
1
1
1
1
1
1
1
1
1
1
1
1
1
1
1
1
1
1.00011
1.21328
1.81804
1.84497
1.22726
1
1
1
1
1
1
1
1
1
1
1
1
1
1
1
1.13726
1.72143
1.90687
1.2707
1.00013
1
1
1
1
1
1
1
1
1
1.00012
1.13256
1.7272
2.82338
2.75171
2.13917
1.98294
2.29764
2.96205
2.42621
1.42051
1.0229
1
1
1
1
1
1
1.00005
1.11251
1.43006
1.87236
1.95049
1.52608
1.14959
1
1
1
1
1
1
1
1
1
1
1
1
1
1
1
1.00007
1.22109
1.8481
1.79726
1.18556
1
1
1
1
1
1
1
1
1
1
1
1
1
1
1
1
1
1
1
1
1
1
1.00007
1.14123
1.72247
1.90925
1.27395
1
1
1
1
1
1
1
1
1
1
1
1
1
1
1
1.09994
1.6478
1.95538
1.33648
1.00023
1
1
1
1
1
1
1
1
1.00026
1.01645
1.23867
1.8796
2.07081
1.80774
1.59157
1.6245
1.73108
2.13019
2.26508
1.7249
1.25642
1.01402
1
1
1
1
1.00008
1.16611
1.52209
1.93488
1.90153
1.46503
1.12509
1
1
1
1
1
1
1
1
1
1
1
1
1
1
1
1
1.00004
1.13141
1.70646
1.92061
1.28858
1.00001
1
1
1
1
1
1
1
1
1
1
1
1
1
1
1
1
1
1
1
1
1
1.00004
1.08354
1.62235
1.96149
1.33221
1
1
1
1
1
1
1
1
1
1
1
1
1
1
1
1.05968
1.55417
1.99422
1.45613
1.04527
1.00034
1.00028
1.00023
1.00014
1.00006
1
1.00016
1.00056
1.10104
1.33287
1.70085
2.00136
1.33864
1.12777
1.08285
1.10552
1.11544
1.2842
1.66222
1.99803
1.73556
1.29892
1.05467
1
1.00002
1.03766
1.24962
1.63735
1.98442
1.82203
1.38464
1.08925
1
1
1
1
1
1
1
1
1
1
1
1
1
1
1
1
1
1.00001
1.05201
1.54159
1.9937
1.42514
1.01064
1
1
1
1
1
1
1
1
1
1
1
1
1
1
1
1
1
1
1
1
1
1.00002
1.03625
1.52647
1.99216
1.3963
1
1
1
1
1
1
1
1
1
1
1
1
1
1
1
1.02063
1.44619
2.18335
1.91828
1.36707
1.19907
1.14984
1.11184
1.07158
1.03019
1.00068
1.07886
1.266
1.56644
1.89756
1.98321
1.70201
1.02005
1
1
1
1
1.00032
1.20849
1.61704
1.98466
1.82549
1.42548
1.17535
1.16883
1.39543
1.78087
1.99873
1.7123
1.29399
1.04737
1
1
1
1
1
1
1
1
1
1
1
1
1
1
1
1
1
1
1
1.00014
1.3812
1.97796
1.61299
1.09538
1
1
1
1
1
1
1
1
1
1
1
1
1
1
1
1
1
1
1
1
1
1
1.00369
1.4465
1.99986
1.46427
1.01055
1
1
1
1
1
1
1
1
1
1
1
1
1
1
1.03718
1.56068
2.66376
2.72633
2.00838
1.79707
1.73458
1.66758
1.58366
1.46296
1.45549
1.58308
1.83037
1.99998
1.81893
1.47061
1.18585
1
1
1
1
1
1
1.00026
1.16849
1.53121
1.92959
1.94802
1.87328
1.87833
1.93012
1.9511
1.58095
1.20854
1.00594
1
1
1
1
1
1
1
1
1
1
1
1
1
1
1
1
1
1
1
1
1.00008
1.24856
1.8602
1.82524
1.24713
1.00022
1.00013
1.00009
1.00005
1.00002
1
1
1
1
1
1
1
1
1
1
1
1
1
1
1
1
1
1.00013
1.39197
1.99122
1.5298
1.03731
1
1
1
1
1
1
1
1
1
1
1
1
1
1.00006
1.23336
1.81021
2.50921
2.29751
1.87752
1.86334
1.90366
1.94766
1.9893
2.13535
2.52454
2.50317
1.97297
1.57033
1.25391
1.06021
1.00005
1
1
1
1
1
1
1
1.00017
1.11572
1.41195
1.88312
2.67786
2.80348
1.9992
1.44581
1.13551
1
1
1
1
1
1
1
1
1
1
1
1
1
1
1
1
1
1
1
1
1
1
1.00004
1.14304
1.75822
2.32753
1.78612
1.32777
1.22492
1.1525
1.09019
1.03716
1.00015
1.00012
1.00009
1.00007
1.00005
1.00003
1.00001
1
1
1
1
1
1
1
1
1
1
1.00011
1.36254
1.9782
1.58071
1.06276
1
1
1
1
1
1
1
1
1
1
1
1
1.00005
1.17026
1.62307
1.99953
1.73106
1.37161
1.22567
1.24091
1.27165
1.32923
1.44736
1.93371
2.78017
2.43149
1.51295
1.1202
1.00009
1
1
1
1
1
1
1
1
1
1
1.00009
1.06283
1.40943
2.25688
2.4775
1.56205
1.08571
1
1
1
1
1
1
1
1
1
1
1
1
1
1
1
1
1
1
1
1
1
1
1
1.00003
1.14099
1.85879
2.92525
2.56152
1.93675
1.84319
1.74436
1.63513
1.52536
1.42708
1.34757
1.27841
1.21452
1.15442
1.0981
1.04736
1.00811
1.00004
1.00003
1.00002
1.00001
1
1
1
1
1
1.00011
1.36513
1.97255
1.60958
1.08124
1
1
1
1
1
1
1
1
1
1
1
1.00004
1.13341
1.54749
1.98598
1.73603
1.25183
1.012
1
1
1
1.00002
1.05563
1.45358
2.12495
1.83417
1.1911
1.00013
1
1
1
1
1
1
1
1
1
1
1
1
1.00019
1.15587
1.72204
1.9663
1.33524
1
1
1
1
1
1
1
1
1
1
1
1
1
1
1
1
1
1
1
1
1
1
1
1
1.00644
1.31664
1.9728
2.42448
2.0324
1.73836
1.81235
1.8918
1.95581
1.99303
1.99797
1.97132
1.91781
1.84315
1.7529
1.65265
1.54901
1.45089
1.36555
1.28807
1.21279
1.13833
1.06736
1.01001
1
1
1.00442
1.05512
1.41598
1.97928
1.61886
1.09538
1
1
1
1
1
1
1
1
1
1
1.00003
1.10199
1.48359
1.95896
1.79852
1.29172
1.01453
1
1
1
1
1
1
1.3569
1.96361
1.64831
1.10971
1.00008
1
1
1
1
1
1
1
1
1
1
1
1
1.00011
1.08642
1.60379
1.98028
1.39084
1.00049
1
1
1
1
1
1
1
1
1
1
1
1.00001
1.00003
1.00005
1.00006
1.00008
1.00009
1.0001
1.00011
1.00011
1.00011
1.00012
1.00013
1.17613
1.66817
1.99679
1.62076
1.26276
1.16534
1.20037
1.25665
1.32443
1.4022
1.49423
1.59697
1.70075
1.79735
1.88076
1.94578
1.98717
1.99985
1.98009
1.92643
1.83926
1.72113
1.57951
1.43147
1.29921
1.19331
1.1225
1.17947
1.58
2.0717
1.62405
1.10931
1
1
1
1
1
1
1
1
1
1.00002
1.06913
1.41971
1.92034
1.857
1.34613
1.03684
1
1
1
1
1
1
1.00733
1.43521
1.99676
1.52308
1.04398
1.00004
1
1
1
1
1
1
1
1
1
1
1
1
1.00003
1.02383
1.46089
1.99823
1.54775
1.08181
1.00005
1.00006
1.00007
1.00008
1.00009
1.00009
1.0001
1.0001
1.00011
1.00011
1.00012
1.01964
1.05266
1.08831
1.12172
1.15077
1.17513
1.19558
1.21336
1.22964
1.24588
1.26628
1.33201
1.69006
2.09523
1.78107
1.24918
1
1
1
1
1
1.00001
1.02445
1.07005
1.12406
1.18243
1.24413
1.30984
1.38257
1.46926
1.57353
1.68835
1.80405
1.90898
1.98346
1.99397
1.91254
1.7473
1.6408
1.78413
2.30542
2.70535
1.98999
1.28577
1.03817
1
1
1
1
1
1
1
1.00001
1.03073
1.34435
1.8631
1.91153
1.40641
1.06418
1
1
1
1
1
1
1
1.0632
1.56635
1.98773
1.39797
1.00033
1
1
1
1
1
1
1
1
1
1
1
1
1
1
1.00031
1.31642
1.91715
1.87696
1.38364
1.16834
1.15462
1.16216
1.17733
1.19612
1.21819
1.24475
1.27736
1.31713
1.36459
1.42111
1.48946
1.56424
1.6359
1.69783
1.74777
1.78671
1.81715
1.84162
1.86182
1.87849
1.89239
2.04067
2.6633
2.59506
1.5758
1.06422
1
1
1
1
1
1
1
1
1
1.00001
1.00002
1.00003
1.00005
1.01504
1.05922
1.11793
1.18852
1.27464
1.39118
1.56422
1.7898
2.14401
2.5756
2.8391
3.02009
2.83337
2.32547
1.72542
1.38656
1.13697
1
1
1
1
1
1
1.00009
1.25396
1.76929
1.96589
1.48349
1.09697
1
1
1
1
1
1
1
1
1.14971
1.71927
1.92349
1.29824
1.00027
1
1
1
1
1
1
1
1
1
1
1
1
1
1
1.00017
1.18228
1.89899
2.62183
2.15186
1.73534
1.7416
1.7626
1.78916
1.81798
1.84883
1.88229
1.91785
1.95263
1.98132
1.99781
1.99783
1.9814
1.95287
1.91848
1.88375
1.85185
1.82362
1.79881
1.77761
1.76236
1.75928
1.91966
2.54289
2.49367
1.50647
1.02761
1
1
1
1
1
1
1
1
1
1
1
1
1
1
1.00002
1.00003
1.00006
1.00009
1.00108
1.09387
1.36822
1.98729
2.71254
2.57856
2.04171
1.76162
1.79451
1.97229
1.94042
1.64452
1.32512
1.1114
1
1
1
1.00006
1.17152
1.63121
1.99992
1.61195
1.15145
1
1
1
1
1
1
1
1.00001
1.00513
1.30548
1.93071
1.86685
1.23718
1.00022
1
1
1
1
1
1
1
1
1
1
1
1
1
1
1.00012
1.15629
1.91692
2.90142
2.44959
1.92314
1.89961
1.87608
1.85099
1.82302
1.79019
1.74974
1.6989
1.6365
1.56461
1.48975
1.42138
1.36492
1.31759
1.27812
1.24609
1.22052
1.20001
1.18335
1.17046
1.16362
1.17054
1.25895
1.67119
2.06261
1.60175
1.09677
1
1
1
1
1
1
1
1
1
1
1
1
1
1
1
1
1
1
1
1.02559
1.32562
1.86496
2.09714
1.67223
1.24691
1.11368
1.21808
1.43808
1.75138
1.98553
1.91144
1.61061
1.32421
1.14531
1.0691
1.12875
1.49844
1.9532
1.81218
1.29954
1.01437
1.00002
1.00002
1.00001
1.00001
1
1.02394
1.08823
1.1856
1.3344
1.83466
2.65462
2.25335
1.39288
1.05111
1.00009
1.00001
1
1
1
1
1
1
1
1
1
1
1
1
1.00013
1.26366
1.89783
2.15066
1.61689
1.31363
1.26917
1.24269
1.221
1.20002
1.17765
1.15217
1.12252
1.08878
1.05297
1.01986
1.00027
1.00021
1.00016
1.00014
1.00012
1.0001
1.00008
1.00007
1.00006
1.00005
1.00005
1.00008
1.29688
1.89491
1.77401
1.1766
1
1
1
1
1
1
1
1
1
1
1
1
1
1
1
1
1
1
1.01286
1.24949
1.70006
1.99938
1.66499
1.23442
1.03731
1
1.00003
1.03962
1.19626
1.45606
1.78345
1.99242
1.91297
1.68249
1.47137
1.63195
2.09179
2.36323
1.87845
1.38185
1.18508
1.1652
1.19097
1.23627
1.29703
1.37572
1.48245
1.62263
1.78344
1.93016
2.26542
2.76842
2.50349
1.80516
1.42093
1.19619
1.06151
1.00013
1.00005
1.07716
1.00174
1
1
1
1
1
1
1
1.00001
1.0329
1.45509
1.99116
1.61632
1.13134
1.00037
1.00029
1.00026
1.00024
1.00022
1.00017
1.00015
1.00012
1.00008
1.00005
1.00002
1
1
1
1
1
1
1
1
1
1
1
1
1.19609
1.79206
1.86869
1.2442
1
1
1
1
1
1
1
1
1
1
1
1
1
1
1
1
1
1.05171
1.3008
1.73434
1.99872
1.66863
1.23037
1.00441
1
1
1
1
1.00003
1.04773
1.21624
1.48132
1.79371
1.98613
2.15152
2.79752
3.33243
2.85076
2.18575
1.80086
1.74911
1.76152
1.80747
1.87031
1.93412
1.98314
1.99964
1.96561
1.8706
1.72285
1.57831
1.63575
1.77569
1.95751
1.97054
1.77852
1.53863
1.33849
1.19021
1.5919
1.40111
1.25174
1.1336
1.04431
1
1
1
1
1.00002
1.14467
1.68026
1.96303
1.37994
1.00722
1
1
1
1
1
1
1
1
1
1
1
1
1
1
1
1
1
1
1
1
1
1
1
1.18349
1.75101
1.9103
1.28751
1
1
1
1
1
1
1
1
1
1
1
1
1
1
1
1
1.11089
1.40653
1.83103
1.98167
1.61352
1.20676
1
1
1
1
1
1
1
1
1.00004
1.05984
1.23681
1.51218
2.17058
3.29094
3.30604
2.36379
1.93287
1.91107
1.90495
1.88191
1.83659
1.76745
1.67582
1.5673
1.45293
1.34496
1.24407
1.15149
1.07206
1.05179
1.18044
1.39648
1.65774
1.88888
1.99716
1.95244
1.79537
1.98131
1.98708
1.87959
1.70485
1.51793
1.35883
1.23858
1.14904
1.09229
1.09424
1.36083
1.88345
1.82239
1.23526
1.00014
1
1
1
1
1
1
1
1
1
1
1
1
1
1
1
1
1
1
1
1
1.01132
1.06334
1.15574
1.4656
2.16131
2.12831
1.32002
1
1
1
1
1
1
1
1
1
1
1
1
1
1
1
1.18249
1.5369
1.93192
1.92077
1.51323
1.16115
1
1
1
1
1
1
1
1
1
1
1
1.00009
1.15802
1.7235
2.39371
2.07097
1.4939
1.33709
1.30689
1.27896
1.2497
1.21123
1.16404
1.11123
1.05753
1.01192
1.00001
1
1
1
1
1
1.01498
1.12244
1.27174
1.45502
1.66485
1.85918
1.38592
1.57229
1.76837
1.92512
1.99774
1.96993
1.86565
1.7307
1.61088
1.58908
1.99106
2.34299
1.73108
1.1779
1.00011
1
1
1
1
1
1
1
1
1
1
1
1.02101
1.05658
1.09654
1.13709
1.17737
1.21842
1.2625
1.3126
1.37351
1.45499
1.56833
1.71052
2.05526
2.838
2.60867
1.53334
1.06059
1
1
1
1
1
1
1
1
1
1
1
1
1.04855
1.2795
1.67801
1.99251
1.80991
1.39124
1.1027
1
1
1
1
1
1
1
1
1
1
1
1
1.00005
1.07249
1.55693
1.99964
1.54039
1.10461
1.01965
1
1
1
1
1
1
1
1
1
1
1
1
1
1
1
1
1
1.02516
1.11503
1.23604
1.00003
1.06788
1.17088
1.29646
1.44595
1.61779
1.78334
1.91007
1.98075
2.04572
2.64675
2.89923
1.93956
1.26539
1.08295
1.03701
1.04382
1.07027
1.10455
1.14157
1.17962
1.21904
1.26119
1.30762
1.35961
1.4196
1.49176
1.57177
1.65121
1.72453
1.79016
1.84898
1.90205
1.94843
1.98382
1.99988
1.98526
1.93148
1.89857
2.21645
2.38594
1.83798
1.29844
1.00665
1
1
1
1
1
1
1
1
1
1
1.11804
1.40977
1.82162
1.99045
1.67032
1.27245
1.04306
1
1
1
1
1
1
1
1
1
1
1
1
1
1.00005
1.07811
1.58891
1.98632
1.4133
1.01131
1
1
1
1
1
1
1
1
1
1
1
1
1
1
1
1
1
1
1
1
1
1
1
1
1
1.01646
1.08753
1.17963
1.28326
1.40335
1.54213
2.04745
2.83272
2.52363
1.7526
1.48995
1.49267
1.5343
1.59665
1.66516
1.73184
1.79354
1.84989
1.90092
1.94514
1.9789
1.99754
1.99761
1.97906
1.94526
1.90069
1.84863
1.78982
1.7229
1.64613
1.5599
1.46922
1.38288
1.30579
1.24012
1.31867
1.61974
1.99119
1.70283
1.19918
1.00001
1
1
1
1
1
1
1
1.01178
1.205
1.5605
1.93973
1.91991
1.52543
1.17789
1
1
1
1
1
1
1
1
1
1
1
1
1
1
1
1.00005
1.1103
1.65464
1.95689
1.33882
1
1
1
1
1
1
1
1
1
1
1
1
1
1
1
1
1
1
1
1
1
1
1
1
1
1
1
1
1
1
1.01316
1.10615
1.43348
2.29943
2.97218
2.47035
1.99603
1.99997
1.99256
1.97157
1.93838
1.89561
1.84549
1.78855
1.72399
1.65122
1.57204
1.49212
1.41993
1.35984
1.30765
1.26082
1.21788
1.17693
1.13604
1.09405
1.05185
1.01465
1
1
1
1
1.19128
1.66042
1.99595
1.55149
1.1133
1
1
1
1
1
1
1.08042
1.32821
1.72381
1.99794
1.79074
1.38203
1.10285
1
1
1
1
1
1
1
1
1
1
1
1
1
1
1
1
1.00007
1.17715
1.74575
1.91233
1.28914
1
1
1
1
1
1
1
1
1
1
1
1
1
1
1
1
1
1
1
1
1
1
1
1
1
1
1
1
1
1
1
1.01345
1.25452
2.00227
2.63745
2.08465
1.58664
1.48355
1.40556
1.34815
1.30001
1.25636
1.21554
1.17607
1.13655
1.09634
1.05651
1.02099
1
1
1
1
1
1
1
1
1
1
1
1
1
1
1
1.26549
1.80349
1.93131
1.39761
1.04627
1
1
1
1.00297
1.17398
1.49327
1.88239
1.97182
1.62954
1.25294
1.0365
1
1
1
1
1
1
1
1
1
1
1
1
1
1
1.00002
1.00004
1.00906
1.12314
1.48258
2.20688
2.05759
1.26928
1
1
1
1
1
1
1
1
1
1
1
1
1
1
1
1
1
1
1
1
1
1
1
1
1
1
1
1
1
1
1.00006
1.00483
1.33961
1.94312
1.98516
1.42569
1.11175
1.03299
1.00001
1
1
1
1
1
1
1
1
1
1
1
1
1
1
1
1
1
1
1
1
1
1
1
1
1.04264
1.39897
1.9329
1.80926
1.28803
1.02528
1.00002
1.09763
1.32363
1.68861
1.9864
1.85528
1.46051
1.15032
1
1
1
1
1
1
1
1
1
1
1
1
1
1.00001
1.00003
1.00005
1.07009
1.20335
1.38726
1.62466
2.09898
2.91197
2.44992
1.42488
1.02668
1
1
1
1
1
1
1
1
1
1
1
1
1
1
1
1
1
1
1
1
1
1
1
1
1
1
1
1.00005
1.00016
1.09605
1.2732
1.8405
2.5058
1.91001
1.2027
1.00284
1
1
1
1
1
1
1
1
1
1
1
1
1
1
1
1
1
1
1
1
1
1
1
1
1
1
1
1.11531
1.55086
1.99309
1.7216
1.40266
1.3337
1.57024
1.89573
1.97906
1.67183
1.29741
1.06629
1
1
1
1
1
1
1
1
1
1
1
1
1.00002
1.00003
1.03558
1.1526
1.32416
1.55295
1.80023
1.97175
1.98453
1.98696
2.2999
2.32974
1.70835
1.21238
1
1
1
1
1
1
1
1
1
1
1
1
1
1
1
1
1
1
1
1
1
1
1
1
1
1.00002
1.00602
1.12744
1.32074
1.58309
1.83917
2.46962
2.9828
2.10076
1.27732
1.00021
1
1
1
1
1
1
1
1
1
1
1
1
1
1
1
1
1
1
1
1
1
1
1
1
1
1
1
1
1.19867
1.67699
2.25076
2.35058
2.0849
1.99985
1.82262
1.4618
1.16438
1
1
1
1
1
1
1
1
1
1
1
1.00001
1.00001
1.00377
1.1029
1.25685
1.46657
1.71964
1.93449
1.99628
1.86871
1.63905
1.41906
1.2762
1.37222
1.70445
1.99408
1.52635
1.08622
1
1
1
1
1
1
1
1
1
1
1
1
1
1
1
1
1
1
1
1
1
1
1
1.02279
1.15643
1.3698
1.65839
1.92036
1.9957
1.86555
1.90937
2.17562
2.11181
1.59867
1.14826
1.00012
1
1
1
1
1
1
1
1
1
1
1
1
1
1
1
1
1
1
1
1
1
1
1
1
1
1
1
1.0088
1.33392
2.24949
2.97804
2.19844
1.56436
1.25915
1.06027
1
1
1
1
1
1
1
1
1
1
1
1
1.0665
1.19968
1.38555
1.62865
1.86991
1.99719
1.92962
1.7118
1.46053
1.25574
1.1079
1.01409
1.00024
1.01898
1.29519
1.8436
1.87215
1.28817
1
1
1
1
1
1
1
1
1
1
1
1
1
1
1
1
1
1
1
1
1
1.04705
1.19054
1.41448
1.7098
1.95616
1.97102
1.75042
1.47433
1.26998
1.19595
1.35955
1.79247
1.96331
1.46737
1.07738
1.00005
1
1
1
1
1
1
1
1
1
1
1
1
1
1
1
1
1
1
1
1
1
1
1
1
1
1
1
1.18335
1.90401
2.31268
1.57577
1.11744
1.00001
1
1
1
1
1
1
1
1
1
1
1.02686
1.14222
1.31388
1.54389
1.79663
1.97425
1.97471
1.79825
1.547
1.31848
1.1483
1.03311
1.00022
1.00008
1.00001
1
1.00002
1.07241
1.50426
1.99735
1.57389
1.0896
1
1
1
1
1
1
1
1
1
1
1
1
1
1
1
1
1
1
1.00001
1.24988
1.48225
1.76786
1.97874
1.94591
1.6911
1.39776
1.18014
1.04329
1
1.00002
1.0491
1.35781
1.88133
1.87535
1.33125
1.01494
1.00001
1
1
1
1
1
1
1
1
1
1
1
1
1
1
1
1
1
1
1
1
1
1
1
1
1
1
1.20261
1.80686
1.86244
1.25619
1.00003
1
1
1
1
1
1
1
1
1
1.08171
1.2314
1.44083
1.69945
1.92522
1.99768
1.87162
1.6301
1.38675
1.20084
1.06767
1.00026
1.0001
1.00002
1
1
1
1
1
1.00008
1.23638
1.82607
1.8586
1.25515
1
1
1
1
1
1
1
1
1
1
1
1
1
1
1
1
1
1.00006
1.09027
1.85518
1.99783
1.90548
1.63629
1.35219
1.14547
1.01657
1
1
1
1
1.00003
1.08165
1.47053
1.971
1.73009
1.20825
1.00017
1
1
1
1
1
1
1
1
1
1
1
1
1
1
1
1
1
1
1
1
1
1
1
1
1
1
1.23676
1.86332
1.78941
1.18699
1.00002
1
1
1
1
1
1
1.03053
1.15018
1.33031
1.57494
1.8351
1.9915
1.94313
1.728
1.47122
1.25889
1.10387
1.00433
1.00011
1.00004
1
1
1
1
1
1
1
1
1
1.07329
1.55024
1.99761
1.47291
1.03862
1
1
1
1
1
1
1
1
1
1
1
1
1
1.00003
1.0424
1.16667
1.34817
1.59459
1.82128
1.55208
1.29999
1.11473
1
1
1
1
1
1
1
1
1.00005
1.14993
1.62584
1.998
1.55276
1.10766
1.00008
1
1
1
1
1
1
1
1
1
1
1
1
1
1
1
1
1
1
1
1
1
1
1
1
1
1.25665
1.88866
1.75844
1.16853
1.00002
1
1
1
1
1.08572
1.23667
1.44916
1.71198
1.93687
1.99312
1.84023
1.58139
1.33759
1.15837
1.03792
1.00014
1.00005
1
1
1
1
1
1
1
1
1
1
1
1
1.00008
1.32221
1.93308
1.71284
1.14788
1
1
1
1
1
1
1
1
1
1
1
1.00007
1.09073
1.2543
1.47885
1.74141
1.95091
1.98816
1.22183
1.0743
1
1
1
1
1
1
1
1
1
1
1
1.00006
1.2559
1.80317
1.92247
1.369
1.02432
1.00002
1
1
1
1
1
1
1
1
1
1
1
1
1
1
1
1
1
1
1
1
1
1
1
1
1.24654
1.87589
1.79497
1.21688
1.00002
1
1.05822
1.1752
1.34809
1.58694
1.84221
1.99329
1.93671
1.71182
1.44874
1.2357
1.08428
1.00015
1.00006
1.00002
1
1
1
1
1
1
1
1
1
1
1
1
1
1
1
1.17268
1.75641
1.90571
1.29187
1
1
1
1
1
1
1
1
1
1.0001
1.11771
1.3154
1.58545
1.85911
1.99802
1.91741
1.68523
1.42846
1
1
1
1
1
1
1
1
1
1
1
1
1
1.00001
1.04373
1.4132
1.95297
1.74785
1.20877
1.00015
1
1
1
1
1
1
1
1
1
1
1
1
1
1
1
1
1
1
1
1
1
1
1
1
1.20305
1.78636
2.0332
1.57009
1.29752
1.36691
1.53892
1.76252
1.95257
1.98957
1.83211
1.57361
1.33001
1.15014
1.03049
1.00007
1.00002
1
1
1
1
1
1
1
1
1
1
1
1
1
1
1
1
1
1
1.0856
1.58577
1.99156
1.46284
1.0487
1
1
1
1
1
1
1.00011
1.11589
1.33095
1.63312
1.91533
1.99322
1.82133
1.54805
1.30727
1.1347
1.02204
1
1
1
1
1
1
1
1
1
1
1
1
1
1
1.00003
1.13339
1.61677
1.99656
1.52246
1.08362
1.00006
1
1
1
1
1
1
1
1
1
1
1
1
1
1
1
1
1
1
1
1
1
1
1
1.12659
1.76328
2.66194
2.36706
1.90431
1.9662
1.99695
1.89562
1.67774
1.43099
1.22818
1.08087
1.00007
1.00001
1
1
1
1
1
1
1
1
1
1
1
1
1
1
1
1
1
1
1
1
1
1.11464
1.70839
2.53244
2.0305
1.3458
1.1041
1
1
1
1.0001
1.08538
1.29521
1.6133
1.9204
1.98374
1.76218
1.46179
1.22677
1.07229
1.00026
1.00011
1.00002
1
1
1
1
1
1
1
1
1
1
1
1
1
1
1
1.00005
1.27286
1.84206
1.87496
1.29725
1.00022
1
1
1
1
1
1
1
1
1
1
1
1
1
1
1
1
1
1
1
1
1
1
1
1.11213
1.79949
2.82979
2.44
1.81032
1.65056
1.45678
1.27668
1.12816
1.02195
1.00001
1
1
1
1
1
1
1
1
1
1
1
1
1
1
1
1
1
1
1
1
1
1
1
1.11239
1.40063
2.06841
2.90274
2.59119
1.90175
1.59921
1.35529
1.19158
1.12567
1.23129
1.52543
1.87043
1.99383
1.7699
1.44123
1.19298
1.0419
1.00017
1.00006
1
1
1
1
1
1
1
1
1
1
1
1
1
1
1
1
1
1
1.00002
1.06642
1.49052
1.99304
1.61759
1.1208
1.00008
1
1
1
1
1
1
1
1
1
1
1
1
1
1
1
1
1
1
1
1
1
1
1.21873
1.82347
2.14955
1.59507
1.22718
1.11554
1.02763
1.00001
1
1
1
1
1
1
1
1
1
1
1
1
1
1
1
1
1
1
1
1
1
1
1
1
1.02962
1.21789
1.54912
1.91416
1.99574
1.94677
1.82915
1.84871
1.99172
1.94818
1.76328
1.81819
1.9524
1.99207
1.85794
1.50131
1.20964
1.03988
1.00015
1.00004
1
1
1
1
1
1
1
1
1
1
1
1
1
1
1
1
1
1
1
1
1
1.00004
1.21209
1.77735
1.91987
1.34196
1.00829
1.00001
1
1
1
1
1
1
1
1
1
1
1
1
1
1
1
1
1
1
1
1
1
1.37512
1.96563
1.67712
1.15509
1.00004
1
1
1
1
1
1
1
1
1
1
1
1
1
1
1
1
1
1
1
1
1
1
1
1
1
1
1.12551
1.38769
1.75933
1.99803
1.82545
1.45772
1.19325
1.1377
1.25511
1.45506
1.71244
2.07383
2.77098
2.74421
1.85528
1.31857
1.07936
1.00016
1.00003
1
1
1
1
1
1
1
1
1
1
1
1
1
1
1
1
1
1
1
1
1
1
1
1.00001
1.05042
1.47987
1.99243
1.6818
1.19315
1.01539
1.00002
1
1
1
1
1
1
1
1
1
1
1
1
1
1
1
1
1
1
1
1.05684
1.54118
1.99665
1.4592
1.03123