<?xml version= "1.0" encoding="UTF-8" standalone="yes"?>
<VTKFile type="StructuredGrid" version="0.1" byte_order="LittleEndian">
<StructuredGrid WholeExtent="0 94 0 0 0 110"> 
<PointData  Scalars= "ScalarData">
<DataArray type = "Float64" Name = "Interfaces" NumberOfComponents="1" format="ascii">
1
1
1
1
1
1
1.00001
1.00004
1.00023
1.00104
1.00421
1.01497
1.04692
1.13046
1.32196
1.67624
1.99402
1.76133
1.31232
1.06989
1.00386
1.00023
1.00001
1
1
1
1
1
1
1.00022
1.00385
1.0295
1.13659
1.43962
1.91708
1.85636
1.37267
1.10612
1.02013
1.00228
1.00017
1.00001
1
1
1
1
1
1
1
1
1
1.00003
1.00095
1.01335
1.08317
1.31336
1.7769
1.97282
1.53838
1.19292
1.06658
1.05751
1.1105
1.2181
1.39065
1.62328
1.86049
1.99364
1.95461
1.79272
1.59942
1.42834
1.29037
1.18044
1.09853
1.04533
1.01629
1.00428
1.00267
1.01465
1.07418
1.27329
1.686
2.01042
1.63629
1.21322
1.07617
1.02742
1.00858
1.00226
1.00052
1.0001
1.00002
1
1
1
1
1
1
1
1
1.00001
1.00007
1.00035
1.00151
1.00575
1.01928
1.05709
1.15098
1.35883
1.72838
1.99999
1.68861
1.25266
1.04737
1.00242
1.00014
1.00001
1
1
1
1
1
1
1.0002
1.00347
1.02683
1.12557
1.4105
1.88994
1.8862
1.39947
1.11556
1.02211
1.00247
1.00018
1.00001
1
1
1
1
1
1
1
1
1
1.00007
1.00162
1.01916
1.10861
1.38357
1.86684
1.91183
1.43887
1.13953
1.03305
1.01046
1.01931
1.0519
1.11845
1.23138
1.39715
1.60559
1.81699
1.96515
1.99508
1.90035
1.71794
1.50403
1.31223
1.16834
1.07396
1.02335
1.00558
1.01068
1.06604
1.28961
1.82213
2.26093
1.8077
1.28589
1.07545
1.02142
1.00667
1.00202
1.00055
1.00013
1.00003
1
1
1
1
1
1
1
1
1.00003
1.00013
1.0006
1.00243
1.00865
1.0272
1.07604
1.19169
1.43702
1.82972
1.97364
1.55041
1.16809
1.02318
1.00107
1.00005
1
1
1
1
1
1
1
1.00017
1.00308
1.02421
1.11532
1.38396
1.8621
1.91228
1.42754
1.12626
1.02451
1.00271
1.00019
1.00001
1
1
1
1
1
1
1
1
1
1.00014
1.00263
1.02627
1.13675
1.4554
1.93375
1.83632
1.36218
1.10677
1.02202
1.00338
1.00283
1.00889
1.02493
1.05959
1.12204
1.22016
1.35866
1.53393
1.7299
1.90811
1.99867
1.93705
1.73691
1.4842
1.26137
1.10945
1.03319
1.01935
1.09956
1.39532
2.13891
2.8579
2.25643
1.58576
1.24494
1.08091
1.02258
1.00778
1.00279
1.00091
1.00025
1.00006
1.00001
1
1
1
1
1
1.00001
1.00005
1.00025
1.00107
1.00404
1.01351
1.04018
1.10703
1.25888
1.56181
1.94581
1.86182
1.38332
1.09491
1.00937
1.0004
1.00002
1
1
1
1
1
1
1
1.00014
1.00264
1.02143
1.10473
1.3568
1.83091
1.93607
1.45675
1.13751
1.02703
1.00297
1.00021
1.00001
1
1
1
1
1
1
1
1
1.00001
1.00027
1.00424
1.03566
1.16944
1.52951
1.97693
1.75739
1.30125
1.08274
1.0153
1.00167
1.00039
1.00125
1.00411
1.01133
1.0267
1.05667
1.10869
1.18923
1.30671
1.46995
1.67468
1.88253
1.99813
1.91877
1.67257
1.40013
1.20764
1.15304
1.27171
1.60189
2.25418
2.83328
2.50687
2.0553
1.7185
1.40017
1.1677
1.06857
1.03425
1.01717
1.00769
1.00287
1.0009
1
1
1
1
1
1.00002
1.00011
1.00047
1.00187
1.00662
1.02099
1.0595
1.15273
1.3575
1.72626
1.99984
1.66495
1.23382
1.04563
1.00345
1.00014
1.00001
1
1
1
1
1
1
1
1.00011
1.00218
1.01847
1.09358
1.32846
1.79599
1.95724
1.48759
1.14961
1.02975
1.00326
1.00023
1.00001
1
1
1
1
1
1
1
1
1.00002
1.00047
1.00657
1.04766
1.2072
1.60473
1.99743
1.68259
1.25427
1.0657
1.01098
1.00095
1.00006
1.00015
1.00056
1.00174
1.00468
1.01145
1.02491
1.04919
1.09205
1.16412
1.27747
1.44761
1.67796
1.91157
2.00334
1.87199
1.6656
1.56125
1.64702
1.90841
2.16564
2.10948
1.89824
1.89917
1.99656
1.93806
1.6459
1.3422
1.16973
1.09516
1.0569
1.03251
1.01607
1.00351
1.00054
1
1
1.00001
1.00004
1.0002
1.00082
1.00306
1.0103
1.03116
1.0854
1.21509
1.49146
1.89669
1.91863
1.45163
1.12984
1.01959
1.00123
1.00005
1
1
1
1
1
1
1
1
1.00008
1.00168
1.01523
1.08141
1.29761
1.75537
1.97561
1.52075
1.16275
1.03279
1.00362
1.00026
1.00001
1
1
1
1
1
1
1
1
1.00003
1.00075
1.00947
1.0617
1.24888
1.67839
1.99801
1.61464
1.21817
1.05397
1.0084
1.00062
1.00001
1.00002
1.00006
1.00022
1.00068
1.00188
1.00456
1.01014
1.02156
1.04317
1.08231
1.15482
1.28416
1.49224
1.7712
2.0469
2.25983
2.3514
2.28298
2.1455
1.88608
1.56665
1.37061
1.36436
1.51767
1.77969
1.9856
1.9067
1.5834
1.34065
1.21729
1.14252
1.08843
1.04444
1.01694
1.0054
1.0013
1.00015
1.00009
1.00038
1.00145
1.00502
1.01577
1.04543
1.12184
1.305
1.6695
2.00051
1.7232
1.28112
1.06731
1.0079
1.00043
1.00002
1
1
1
1
1
1
1
1
1.00005
1.00117
1.01196
1.06909
1.26612
1.71041
1.9898
1.55782
1.17864
1.037
1.00429
1.00033
1.00002
1
1
1
1
1
1
1
1
1.00005
1.00108
1.01268
1.07668
1.29208
1.74696
1.9822
1.55244
1.18852
1.04509
1.00671
1.00045
1
1
1.00001
1.00002
1.00008
1.00025
1.00068
1.0017
1.00404
1.00899
1.01929
1.0419
1.08975
1.1878
1.37951
1.72846
2.32428
2.96062
2.70376
2.01459
1.54029
1.27098
1.15156
1.13695
1.19025
1.30078
1.50717
1.81112
1.99982
1.84608
1.59818
1.41409
1.28726
1.23261
1.115
1.05023
1.01956
1.00698
1.00278
1.0025
1.0057
1.01433
1.03478
1.08404
1.20437
1.48038
1.92902
2.00597
1.52625
1.16989
1.03304
1.00308
1.00015
1.00001
1
1
1
1
1
1
1
1
1.00002
1.00076
1.00919
1.05822
1.23683
1.66313
1.99839
1.60201
1.20083
1.0442
1.00579
1.0005
1.00003
1
1
1
1
1
1
1
1
1.00007
1.00144
1.01604
1.09208
1.33568
1.80869
1.95334
1.49448
1.16244
1.03754
1.00536
1.00034
1
1
1
1
1.00001
1.00003
1.00009
1.00026
1.00069
1.00172
1.00419
1.01053
1.02675
1.06985
1.18449
1.46925
2.10109
2.97346
2.66446
1.78735
1.32062
1.12991
1.06246
1.05217
1.06916
1.10268
1.17791
1.32826
1.5843
1.89408
1.99598
1.85845
1.67224
1.68819
1.42512
1.23224
1.11438
1.05394
1.02852
1.02364
1.03346
1.05864
1.10876
1.21179
1.43312
1.87443
2.32289
1.98001
1.40023
1.10974
1.01645
1.00121
1.00005
1
1
1
1
1
1
1
1
1
1.00001
1.00052
1.00744
1.05043
1.21291
1.61747
1.99943
1.65244
1.22965
1.05438
1.00807
1.00075
1.00005
1
1
1
1
1
1
1
1
1.00009
1.00185
1.01956
1.10778
1.37939
1.86263
1.91426
1.44005
1.13874
1.03073
1.00417
1.00025
1
1
1
1
1.00001
1.00002
1.00006
1.00018
1.00055
1.0015
1.00386
1.00974
1.02558
1.06857
1.1809
1.46246
2.12557
3.1274
2.80947
1.8156
1.30172
1.09843
1.03416
1.02079
1.02453
1.03482
1.05971
1.1098
1.21032
1.41117
1.69415
1.9312
1.99901
1.99606
1.91178
1.66238
1.40734
1.23213
1.14096
1.11434
1.13464
1.19836
1.32024
1.53913
1.92817
2.53795
2.75583
1.99304
1.3591
1.09159
1.01215
1.00063
1.00002
1
1
1
1
1
1
1
1
1
1
1.00041
1.00632
1.04458
1.19247
1.57271
1.99182
1.70626
1.2632
1.06648
1.0108
1.00104
1.00007
1
1
1
1
1
1
1
1
1.00012
1.00233
1.02337
1.12418
1.42371
1.90841
1.86755
1.38929
1.11721
1.02458
1.00311
1.00017
1
1
1
1.00001
1.00003
1.00008
1.00026
1.00081
1.00235
1.00631
1.01567
1.03674
1.08443
1.18104
1.35878
1.69827
2.44603
3.6461
3.36682
2.18044
1.52739
1.20563
1.06661
1.02181
1.01148
1.01209
1.01996
1.03573
1.06839
1.14411
1.28067
1.47728
1.70932
1.62234
1.88348
2.00967
1.90321
1.6671
1.47484
1.39078
1.41177
1.52881
1.73825
2.02122
2.37796
2.82601
2.85505
2.05976
1.40264
1.11345
1.01991
1.00163
1.00005
1
1
1
1
1
1
1
1
1
1
1.00034
1.00544
1.03939
1.1734
1.5279
1.97496
1.76054
1.29976
1.07967
1.0137
1.00133
1.00009
1
1
1
1
1
1
1
1.00001
1.00017
1.00296
1.02784
1.14208
1.46951
1.94558
1.8159
1.34294
1.09818
1.01923
1.0022
1.00011
1
1
1.00001
1.00004
1.00014
1.00041
1.00124
1.00358
1.0098
1.02491
1.05844
1.12666
1.25336
1.45485
1.7179
2.06721
2.74667
3.8173
3.69248
2.61879
1.95975
1.52059
1.21777
1.0731
1.02235
1.0084
1.00742
1.01163
1.02144
1.04595
1.09394
1.1757
1.30688
1.25051
1.43858
1.70216
1.98668
2.15471
2.13573
2.04685
2.00686
2.0287
2.05556
2.04902
2.08931
2.29206
2.49193
2.13403
1.52977
1.17977
1.04335
1.00589
1.00016
1
1
1
1
1
1
1
1
1
1.00001
1.0003
1.00463
1.03428
1.15441
1.48244
1.94871
1.81314
1.33845
1.09355
1.01666
1.00161
1.0001
1.00001
1
1
1.00001
1.00001
1.00001
1.00002
1.00004
1.00028
1.00394
1.03359
1.16287
1.51823
1.97392
1.7622
1.30213
1.08221
1.01491
1.0015
1.00006
1
1.00002
1.00006
1.00021
1.00063
1.00181
1.00505
1.01354
1.03418
1.07979
1.17072
1.33228
1.57747
1.85013
2.01172
2.12341
2.49063
3.13146
3.09591
2.46296
2.1531
1.94679
1.56036
1.2327
1.07659
1.02235
1.00718
1.00465
1.00668
1.01383
1.02846
1.05677
1.10906
1.08404
1.16499
1.31309
1.56855
1.98651
2.53834
2.87902
2.61887
2.13199
1.79022
1.6172
1.58799
1.72786
2.02356
2.12621
1.72135
1.29918
1.0903
1.01763
1.00141
1.00003
1
1
1
1
1
1
1
1
1.00001
1.00028
1.00389
1.0291
1.13502
1.4358
1.91312
1.86264
1.37946
1.10824
1.01976
1.0019
1.00013
1.00002
1.00002
1.00003
1.00005
1.00007
1.0001
1.00014
1.0002
1.00062
1.00562
1.0415
1.18826
1.5715
1.9938
1.70947
1.2677
1.06967
1.01176
1.00103
1.00003
1.00002
1.00008
1.00028
1.00089
1.00256
1.00691
1.01777
1.04347
1.09943
1.20925
1.40003
1.67508
1.93691
1.98469
1.81791
1.72803
1.94211
2.42761
2.44045
1.97771
1.80484
1.95286
1.9559
1.5619
1.22482
1.07292
1.02058
1.0058
1.00286
1.00412
1.00805
1.01673
1.0344
1.02508
1.05512
1.11965
1.25657
1.55148
2.14903
2.83101
2.47116
1.75827
1.40379
1.28203
1.28087
1.3963
1.66953
1.9963
1.91243
1.47718
1.17234
1.04365
1.00608
1.00024
1
1
1
1
1
1
1
1
1.00001
1.00024
1.00317
1.02398
1.11535
1.38763
1.86803
1.90767
1.42366
1.12457
1.0234
1.00233
1.0002
1.00009
1.00014
1.00022
1.00032
1.00045
1.00061
1.00081
1.00108
1.00192
1.00905
1.05321
1.22088
1.63237
2.0083
1.661
1.23996
1.06054
1.00977
1.00081
1.00005
1.0001
1.00034
1.00113
1.00334
1.00905
1.0227
1.05349
1.1186
1.2439
1.45667
1.74695
1.9781
1.93512
1.67123
1.42924
1.3611
1.56953
2.05054
2.09967
1.64695
1.44521
1.56473
1.89765
1.94263
1.52868
1.20597
1.06543
1.01767
1.00447
1.00185
1.00227
1.00456
1.00978
1.0071
1.01763
1.04422
1.11438
1.29803
1.7433
2.36149
2.07581
1.45853
1.186
1.11448
1.12859
1.21903
1.43532
1.79375
2.00447
1.69827
1.30247
1.09366
1.0187
1.00167
1.00003
1
1
1
1
1
1
1
1.00001
1.00019
1.00247
1.01909
1.09608
1.33901
1.81349
1.94707
1.4743
1.14555
1.02915
1.00345
1.00064
1.00067
1.001
1.00143
1.00195
1.00257
1.00328
1.00411
1.00518
1.00731
1.01819
1.07393
1.26801
1.7106
2.02821
1.62265
1.21986
1.05493
1.00902
1.00093
1.0002
1.0004
1.00129
1.00394
1.01096
1.02766
1.06413
1.13818
1.27691
1.50599
1.80139
1.99519
1.88808
1.59168
1.33128
1.18216
1.16898
1.38386
1.88006
1.97082
1.48542
1.24729
1.27375
1.52669
1.9195
1.90821
1.48139
1.1831
1.05683
1.01481
1.00345
1.00112
1.00122
1.00251
1.00204
1.006
1.01834
1.05931
1.1893
1.54903
2.09724
1.85107
1.31185
1.08955
1.04283
1.05813
1.1231
1.28099
1.5846
1.9443
1.90306
1.48726
1.1799
1.0465
1.00687
1.00034
1.00001
1
1
1
1
1
1
1.00001
1.00014
1.00183
1.01493
1.07923
1.29357
1.75168
1.97827
1.53543
1.17563
1.03973
1.00708
1.00345
1.0044
1.00601
1.0079
1.01002
1.01237
1.01497
1.01794
1.02156
1.02734
1.04571
1.11945
1.35097
1.83499
2.08086
1.60772
1.21234
1.05498
1.01054
1.0019
1.00083
1.00148
1.00429
1.01217
1.03132
1.07315
1.15635
1.30768
1.54984
1.84376
1.99996
1.84711
1.5403
1.28851
1.13813
1.06844
1.08467
1.2924
1.79535
1.94647
1.43239
1.159
1.12627
1.25446
1.57196
1.95928
1.85567
1.42872
1.15926
1.04813
1.01192
1.00249
1.00064
1.00061
1.00062
1.00249
1.01019
1.04058
1.14974
1.48014
2.00451
1.74617
1.24325
1.04971
1.01529
1.02632
1.06885
1.17696
1.40524
1.77287
1.99922
1.71029
1.31442
1.09947
1.02064
1.00205
1.00004
1
1
1
1
1
1
1.00001
1.0001
1.00136
1.01188
1.06616
1.25471
1.68709
1.99805
1.61183
1.22238
1.06288
1.02199
1.0191
1.02373
1.0296
1.03597
1.04268
1.04974
1.05727
1.06567
1.0758
1.09041
1.12377
1.22767
1.51853
2.06709
2.21661
1.64204
1.23008
1.06737
1.01776
1.00547
1.00306
1.00489
1.01274
1.03309
1.07843
1.16895
1.33168
1.58526
1.87549
1.99804
1.81315
1.5038
1.26227
1.12089
1.05042
1.02375
1.04839
1.23859
1.734
1.96008
1.43573
1.12948
1.0611
1.11127
1.28834
1.64733
1.98995
1.78856
1.37349
1.13333
1.03805
1.00843
1.0015
1.00033
1.00023
1.00137
1.00763
1.03573
1.14315
1.47914
1.98941
1.68025
1.20243
1.0316
1.00553
1.01186
1.03713
1.1064
1.26583
1.56989
1.93604
1.91201
1.50258
1.18988
1.05072
1.008
1.00046
1.00001
1
1
1
1
1
1
1.00008
1.0011
1.00998
1.05722
1.22514
1.63038
2.02459
1.73632
1.32239
1.13505
1.08575
1.08686
1.09994
1.11519
1.131
1.14701
1.1633
1.18033
1.1992
1.22195
1.2534
1.31265
1.46349
1.84168
2.47146
2.48088
1.76101
1.29669
1.10661
1.03903
1.01631
1.01011
1.01457
1.03382
1.07995
1.17398
1.34416
1.60692
1.89564
1.99355
1.78752
1.47917
1.24545
1.11066
1.04436
1.01604
1.00817
1.03073
1.19917
1.67545
1.98033
1.46549
1.12879
1.03754
1.04478
1.12915
1.34386
1.73372
1.99978
1.70654
1.31187
1.10381
1.02645
1.00514
1.00089
1.00011
1.00098
1.00678
1.03661
1.15652
1.52399
1.99796
1.61679
1.16961
1.02079
1.00215
1.0052
1.01883
1.06002
1.16441
1.38846
1.75742
1.9999
1.7273
1.33007
1.10771
1.02348
1.00253
1.00004
1
1
1
1
1.00002
1.00014
1.00078
1.00363
1.01621
1.06722
1.23376
1.64219
2.15351
2.00637
1.55951
1.33172
1.27284
1.2821
1.30894
1.33873
1.36863
1.39788
1.42671
1.45615
1.48833
1.52668
1.57743
1.66203
1.84984
2.27364
2.87942
2.77237
1.97969
1.44489
1.1982
1.09123
1.04518
1.02994
1.03936
1.08085
1.17338
1.34504
1.61257
1.90345
1.99017
1.77193
1.46457
1.23633
1.10522
1.04115
1.01414
1.00443
1.00319
1.02115
1.16872
1.61819
1.9951
1.50899
1.14221
1.03342
1.01826
1.05141
1.1599
1.41467
1.8247
1.97952
1.60829
1.24629
1.07466
1.01763
1.00349
1.00008
1.00084
1.0068
1.04096
1.1831
1.59579
1.99924
1.54959
1.14059
1.01308
1.00089
1.00217
1.00889
1.03151
1.09529
1.24734
1.54694
1.92302
1.92609
1.52553
1.20474
1.05711
1.00969
1.00065
1.00005
1.00021
1.00081
1.00244
1.0059
1.01186
1.02124
1.03716
1.06915
1.14656
1.34886
1.82861
2.53812
2.55788
2.0286
1.72747
1.65073
1.66567
1.70133
1.7378
1.7719
1.80291
1.83124
1.85806
1.88514
1.91429
1.94736
1.99551
2.10424
2.35163
2.69479
2.70352
2.20402
1.69416
1.37724
1.20321
1.11356
1.08006
1.09721
1.17606
1.34017
1.60532
1.90018
1.99029
1.76872
1.45969
1.23303
1.10352
1.04008
1.01339
1.00388
1.00109
1.00166
1.01607
1.14587
1.56491
2
1.56016
1.16368
1.03766
1.01024
1.01809
1.06547
1.20146
1.50128
1.91033
1.92272
1.50462
1.19017
1.05583
1.01333
1.00007
1.00086
1.00767
1.04859
1.21725
1.67318
1.98205
1.4841
1.11558
1.00775
1.00038
1.00085
1.0039
1.01539
1.05159
1.14742
1.36151
1.72913
1.99965
1.75608
1.35604
1.12348
1.03266
1.00963
1.00825
1.01174
1.01823
1.02956
1.04829
1.07606
1.11396
1.16566
1.24214
1.37566
1.65966
2.29334
3.25229
3.28786
2.54966
2.13114
2.00887
1.99538
1.9991
1.99985
1.99721
1.99178
1.98401
1.97373
1.9598
1.9397
1.91001
1.87213
1.8482
1.88587
2.01689
2.17626
2.18517
1.96555
1.66167
1.41333
1.25853
1.19466
1.22183
1.35301
1.59865
1.8907
1.99381
1.77847
1.46558
1.23542
1.10453
1.04053
1.01345
1.00378
1.00091
1.00028
1.00121
1.01361
1.12903
1.51778
1.995
1.61346
1.18949
1.04512
1.00931
1.00603
1.02271
1.08514
1.25361
1.60052
1.97301
1.83909
1.42222
1.15801
1.04599
1.00019
1.00101
1.00942
1.05913
1.2551
1.74331
1.95063
1.42554
1.09472
1.00448
1.00017
1.00032
1.00161
1.00701
1.02606
1.08228
1.22244
1.51195
1.90455
1.95932
1.57935
1.25404
1.10271
1.05759
1.05737
1.07297
1.09836
1.13626
1.19105
1.26513
1.35801
1.46961
1.60533
1.79598
2.15373
2.89844
3.79578
3.38648
2.45362
1.98838
1.832
1.78308
1.75413
1.72698
1.70117
1.67671
1.6531
1.62911
1.60259
1.57072
1.53093
1.4836
1.43988
1.42844
1.48732
1.64171
1.86243
2.0137
1.94973
1.73193
1.52876
1.43245
1.47163
1.65023
1.90307
2.00514
1.79924
1.48206
1.24414
1.1084
1.04212
1.01405
1.00394
1.00092
1.00019
1.00011
1.00107
1.0123
1.11599
1.47765
1.98251
1.66411
1.21607
1.05302
1.01028
1.00253
1.00638
1.0302
1.11031
1.31773
1.70418
1.99885
1.76336
1.37291
1.13463
1.00831
1.00151
1.012
1.07143
1.29409
1.80435
1.91124
1.37445
1.07728
1.00265
1.00007
1.00012
1.00063
1.003
1.01236
1.04338
1.13025
1.33627
1.7192
2.06934
1.90378
1.51618
1.28526
1.20803
1.21258
1.25351
1.31607
1.40089
1.51003
1.6389
1.77312
1.89318
1.98876
2.09775
2.35466
2.93214
3.41837
2.7677
1.94559
1.55903
1.42744
1.38703
1.36619
1.34848
1.33256
1.31794
1.3041
1.29018
1.27498
1.25703
1.23514
1.20949
1.18501
1.1762
1.20757
1.30775
1.49706
1.75468
1.97065
2.01248
1.92243
1.86311
1.92346
2.05937
2.07763
1.84006
1.50871
1.25908
1.11549
1.04503
1.0151
1.00427
1.001
1.00019
1.00004
1.00008
1.001
1.01134
1.10531
1.44457
1.96627
1.70747
1.23931
1.05924
1.01118
1.00175
1.0015
1.00874
1.04105
1.14298
1.38965
1.79328
1.99543
1.69765
1.31606
1.04369
1.00692
1.01554
1.08475
1.3332
1.8582
1.86504
1.32721
1.06164
1.00164
1.00003
1.00004
1.00025
1.00126
1.00576
1.02281
1.07726
1.22397
1.55618
2.09473
2.35136
2.01445
1.6754
1.5426
1.54813
1.6174
1.71287
1.81948
1.9192
1.98588
1.99688
1.94989
1.87452
1.8415
1.96745
2.36698
2.72995
2.25196
1.59793
1.28152
1.17732
1.1514
1.14195
1.13446
1.12792
1.12193
1.11622
1.11042
1.10403
1.0965
1.08734
1.07664
1.06635
1.06293
1.07916
1.13347
1.24664
1.43471
1.69074
1.96471
2.20597
2.42342
2.55779
2.40457
1.98185
1.56313
1.28235
1.12599
1.04944
1.01671
1.00476
1.00113
1.00022
1.00003
1.00001
1.00008
1.00094
1.01049
1.09643
1.41858
1.95051
1.73968
1.2564
1.06313
1.01158
1.00158
1.00038
1.00206
1.0128
1.05493
1.18078
1.46328
1.86552
1.96899
1.59941
1.12278
1.02855
1.02377
1.10188
1.37683
1.90696
1.80984
1.27978
1.04625
1.00105
1.00002
1.00002
1.00012
1.00068
1.00346
1.01533
1.05704
1.17855
1.48262
2.11039
2.79798
2.67634
2.2178
1.98767
1.94959
1.97836
1.99942
1.98582
1.92705
1.8275
1.70405
1.57875
1.47786
1.44137
1.54117
1.87377
2.27533
2.01043
1.45172
1.16169
1.06838
1.04968
1.046
1.04338
1.04116
1.03914
1.03719
1.03519
1.03297
1.03036
1.0272
1.02351
1.01999
1.01907
1.02638
1.05162
1.10822
1.21263
1.38408
1.65049
2.06863
2.66364
2.97923
2.43263
1.74198
1.33974
1.14454
1.05593
1.01898
1.00547
1.00131
1.00026
1.00004
1.00001
1.00001
1.00007
1.00088
1.00984
1.08965
1.40011
1.93839
1.76085
1.26738
1.0651
1.01161
1.00149
1.00017
1.0004
1.00325
1.01792
1.0726
1.22399
1.54416
1.93952
1.8974
1.26211
1.08911
1.05807
1.14414
1.45097
1.96532
1.74743
1.23214
1.03124
1.00064
1.00001
1.00003
1.0002
1.00108
1.00522
1.02121
1.07194
1.20816
1.53068
2.16995
2.85569
2.74976
2.28267
2.01421
1.91032
1.84548
1.76231
1.65981
1.54893
1.44133
1.34456
1.26386
1.20824
1.20042
1.29584
1.59183
2.03313
1.93753
1.42305
1.12821
1.0318
1.01387
1.0122
1.01143
1.01081
1.01025
1.00971
1.00914
1.00852
1.00779
1.00691
1.00588
1.00492
1.00477
1.00749
1.01736
1.04157
1.09108
1.18388
1.3594
1.71291
2.36249
2.8252
2.21879
1.53512
1.20431
1.0716
1.02287
1.00648
1.00157
1.00031
1.00005
1.00001
1
1.00001
1.00007
1.00085
1.00954
1.08521
1.38899
1.93095
1.77432
1.27489
1.06652
1.01169
1.0015
1.00016
1.00008
1.00067
1.0049
1.02485
1.09281
1.27803
1.6637
2.00888
1.51087
1.23471
1.16583
1.26642
1.62466
2.08468
1.69839
1.19149
1.0187
1.00035
1.00002
1.00014
1.00082
1.00392
1.01541
1.05013
1.13836
1.33416
1.70947
2.21848
2.41274
2.10882
1.77842
1.603
1.52045
1.4566
1.3861
1.31364
1.24628
1.18835
1.14051
1.10289
1.07989
1.08832
1.17626
1.44066
1.89799
1.94227
1.45435
1.13628
1.02636
1.0043
1.00256
1.00238
1.00224
1.00212
1.002
1.00187
1.00174
1.00158
1.00138
1.00116
1.00096
1.00096
1.00177
1.00495
1.01368
1.03401
1.07875
1.18208
1.43115
1.9572
2.44966
2.00966
1.41562
1.13672
1.03794
1.00911
1.00198
1.00039
1.00006
1.00001
1
1
1
1.00007
1.00086
1.00972
1.08322
1.38401
1.92731
1.78769
1.2855
1.07041
1.01302
1.00215
1.00053
1.0002
1.00018
1.00115
1.0071
1.03323
1.12416
1.39845
1.8991
1.96905
1.54615
1.41653
1.55126
2.00189
2.34059
1.70723
1.1768
1.01406
1.00036
1.00011
1.00069
1.0036
1.01454
1.04673
1.12474
1.28767
1.57744
1.94563
2.09839
1.8686
1.55693
1.36075
1.27004
1.22816
1.19509
1.1596
1.1247
1.09396
1.06907
1.04958
1.03495
1.02794
1.04196
1.11933
1.35266
1.80361
1.9712
1.51635
1.16442
1.0332
1.00336
1.00041
1.00038
1.00035
1.00033
1.00031
1.00029
1.00027
1.00024
1.00021
1.00017
1.00014
1.00015
1.00034
1.00117
1.00377
1.01098
1.03094
1.09121
1.26708
1.68332
2.17099
1.89914
1.36979
1.11134
1.02529
1.00425
1.00059
1.00008
1.00001
1
1
1
1
1.00007
1.00094
1.01041
1.08339
1.38272
1.9276
1.81844
1.31375
1.08475
1.02056
1.00699
1.00367
1.00194
1.00095
1.00116
1.00329
1.01619
1.06613
1.26515
1.77068
2.63798
2.06452
1.84154
2.02377
2.57402
2.70833
1.81803
1.22266
1.03343
1.00502
1.00123
1.00341
1.01428
1.04664
1.12416
1.28144
1.55058
1.87987
2.01039
1.78933
1.47262
1.25553
1.14679
1.10282
1.08477
1.07114
1.0566
1.04259
1.03071
1.02164
1.01496
1.01029
1.00962
1.02379
1.08953
1.29189
1.71902
1.99521
1.5956
1.20439
1.04539
1.00496
1.00007
1.00004
1.00004
1.00004
1.00003
1.00003
1.00003
1.00003
1.00002
1.00002
1.00002
1.00002
1.00005
1.00022
1.00086
1.00311
1.01183
1.04853
1.17914
1.52416
2.01174
1.87198
1.37117
1.10899
1.0226
1.00298
1.00023
1.00001
1
1
1
1
1.00001
1.00009
1.00115
1.01183
1.08604
1.38479
1.94257
1.9035
1.39058
1.13177
1.05232
1.03094
1.0214
1.01333
1.00752
1.00809
1.01526
1.03958
1.09701
1.28311
1.77684
2.85522
2.35419
2.12412
2.30377
2.79173
2.85852
2.02105
1.37354
1.11202
1.03396
1.01257
1.0172
1.04883
1.1274
1.28651
1.55406
1.87243
1.99701
1.78463
1.46676
1.23479
1.10853
1.0531
1.0335
1.02668
1.02197
1.017
1.01229
1.00844
1.00568
1.00379
1.00267
1.00384
1.01599
1.07014
1.24204
1.63319
1.99848
1.68594
1.25532
1.06216
1.00802
1.00018
1
1
1
1
1
1
1
1
1
1
1
1.00001
1.00003
1.00016
1.00083
1.00488
1.02857
1.1299
1.4269
1.91777
1.89042
1.39829
1.11797
1.0242
1.00301
1.00018
1
1
1
1
1
1.00001
1.00017
1.00184
1.01536
1.0951
1.39985
2.00214
2.10335
1.57317
1.25829
1.14974
1.1113
1.08618
1.06079
1.04138
1.04327
1.07066
1.13336
1.24061
1.46582
1.94183
2.21554
1.93183
1.8282
1.94291
2.24189
2.48467
2.18086
1.64988
1.29944
1.13
1.06524
1.06991
1.14054
1.29931
1.5688
1.88214
1.99417
1.78319
1.47292
1.23988
1.10574
1.04164
1.01676
1.00916
1.00696
1.00562
1.00423
1.00294
1.00192
1.00123
1.0008
1.00067
1.002
1.0115
1.05467
1.19739
1.54493
1.97234
1.78302
1.32119
1.08652
1.01373
1.00084
1.00007
1.00005
1.00004
1.00003
1.00004
1.00004
1.00005
1.00004
1.00003
1.00002
1.00001
1.00001
1.00001
1.00003
1.00025
1.00233
1.01818
1.09868
1.35897
1.84866
1.92431
1.43763
1.13242
1.02774
1.00355
1.00022
1
1
1
1
1.00001
1.00007
1.00061
1.00442
1.02578
1.122
1.45063
2.14241
2.47556
1.93379
1.5304
1.37523
1.30768
1.25385
1.19585
1.1531
1.15829
1.22399
1.35141
1.53662
1.79476
2.10233
1.58674
1.43952
1.4028
1.46048
1.61715
1.89146
2.08118
1.94624
1.62225
1.3528
1.22056
1.2198
1.34417
1.59836
1.89953
1.98955
1.76911
1.46695
1.24197
1.10913
1.04223
1.01402
1.00453
1.00206
1.00148
1.00117
1.00086
1.00057
1.00036
1.00022
1.00014
1.0002
1.00122
1.0082
1.0415
1.15741
1.45824
1.91678
1.88542
1.41453
1.12954
1.02989
1.00725
1.00358
1.00206
1.00113
1.00073
1.00066
1.00067
1.00062
1.00049
1.00033
1.0002
1.00013
1.00009
1.00007
1.00006
1.00012
1.00124
1.01196
1.07677
1.30697
1.78783
1.95634
1.48171
1.14986
1.03245
1.00439
1.0003
1.00001
1
1
1
1.00004
1.00036
1.00249
1.01294
1.05338
1.18589
1.56461
2.35748
2.91186
2.41113
1.94215
1.75123
1.6607
1.57793
1.48534
1.42734
1.44436
1.54686
1.72243
1.90931
2.00819
1.93813
1.24794
1.17446
1.15889
1.18397
1.25844
1.43998
1.73189
1.97792
1.95673
1.73518
1.56744
1.56332
1.71365
1.9351
1.98025
1.74421
1.44811
1.2342
1.10857
1.04352
1.01458
1.00403
1.00103
1.00038
1.00025
1.00019
1.00014
1.00009
1.00005
1.00003
1.00002
1.00009
1.00077
1.00567
1.03078
1.12364
1.38017
1.84675
2.00662
1.56979
1.22251
1.08251
1.04122
1.02851
1.02053
1.0146
1.01118
1.00936
1.00797
1.00646
1.0048
1.00325
1.00211
1.00146
1.00112
1.00086
1.00059
1.00039
1.00086
1.00811
1.06135
1.26723
1.73352
1.97937
1.52585
1.16882
1.03799
1.00548
1.00043
1.00001
1
1
1.00002
1.00021
1.00161
1.00875
1.03558
1.11406
1.30997
1.75511
2.51319
2.90395
2.49881
2.14728
2.02392
1.98431
1.94467
1.91601
1.95322
2.01645
2.04458
2.04843
1.96821
1.77784
1.54481
1.09289
1.05984
1.05321
1.06249
1.09383
1.18674
1.38398
1.68236
1.97292
2.11109
2.14975
2.18752
2.15398
1.99305
1.70979
1.42156
1.21884
1.1021
1.04235
1.01488
1.00425
1.00097
1.00019
1.00006
1.00003
1.00003
1.00002
1.00001
1.00001
1
1.00001
1.00005
1.00049
1.00394
1.02305
1.09841
1.32024
1.79098
2.18102
1.8556
1.42811
1.22479
1.15086
1.11896
1.09603
1.07707
1.06327
1.05347
1.04519
1.03705
1.02905
1.02191
1.01645
1.01278
1.01015
1.00775
1.00537
1.00333
1.00232
1.00694
1.05227
1.24017
1.6902
1.99302
1.56618
1.18772
1.04387
1.00672
1.00058
1.00002
1
1.00001
1.00011
1.00094
1.00576
1.02542
1.08496
1.22719
1.51196
1.97552
2.38627
2.31062
2.0041
1.84169
1.82214
1.86192
1.93117
2.14409
2.55818
2.74221
2.3608
1.92977
1.62593
1.40385
1.24369
1.02961
1.01707
1.01477
1.01762
1.02877
1.06784
1.16628
1.35529
1.65759
2.09317
2.64598
2.83321
2.27988
1.72023
1.39039
1.20075
1.09242
1.03819
1.01401
1.00424
1.00102
1.00019
1.00003
1.00001
1.00001
1.00002
1.00002
1.00003
1.00004
1.00004
1.00005
1.00008
1.00042
1.00321
1.01939
1.08578
1.29059
1.77955
2.43114
2.34213
1.82496
1.52778
1.40556
1.34375
1.29561
1.25377
1.21851
1.18882
1.1624
1.13745
1.11389
1.09292
1.07595
1.06279
1.05169
1.04094
1.03032
1.02096
1.01432
1.01457
1.05433
1.23107
1.66747
2.00377
1.60084
1.20547
1.04984
1.00811
1.00079
1.00004
1.00001
1.00005
1.00047
1.00339
1.01697
1.06226
1.17724
1.41043
1.77239
2.07473
2.00469
1.71662
1.50891
1.43567
1.44234
1.48533
1.5741
1.90987
2.64186
2.91007
2.12224
1.55512
1.29869
1.16697
1.08973
1.00766
1.00385
1.00324
1.00397
1.00722
1.02055
1.06028
1.15221
1.34335
1.7502
2.53577
2.86965
2.03412
1.43023
1.18276
1.08281
1.0333
1.01193
1.00385
1.00102
1.00024
1.00008
1.00009
1.00019
1.00045
1.00088
1.00141
1.00192
1.00237
1.00274
1.00305
1.00336
1.00403
1.00754
1.02548
1.09543
1.3077
1.83192
2.67897
2.86365
2.32312
1.95767
1.80772
1.73203
1.66628
1.60257
1.54263
1.48553
1.4301
1.3766
1.32608
1.28033
1.24092
1.20709
1.17593
1.14488
1.114
1.08586
1.06342
1.05215
1.08522
1.25777
1.68882
2.03491
1.63773
1.22529
1.05759
1.01046
1.00136
1.00018
1.00006
1.00022
1.00172
1.01014
1.04238
1.13263
1.32966
1.66047
1.97748
1.93511
1.61685
1.35399
1.22458
1.1863
1.19057
1.21425
1.27738
1.59094
2.31789
2.51085
1.7178
1.27469
1.11915
1.05735
1.02686
1.00155
1.00065
1.00053
1.00068
1.00144
1.00505
1.01801
1.05547
1.15697
1.43888
2.11299
2.51379
1.78316
1.26229
1.07983
1.03158
1.01237
1.00564
1.00374
1.00339
1.0036
1.00404
1.00472
1.00586
1.0078
1.01063
1.01391
1.01707
1.01982
1.02211
1.02404
1.02578
1.02808
1.03479
1.0612
1.15071
1.39779
1.95178
2.71096
2.7992
2.35672
2.08618
2.00962
1.99981
1.98954
1.96571
1.93035
1.88542
1.83157
1.7702
1.70388
1.63723
1.57309
1.51142
1.44948
1.3849
1.31849
1.25469
1.19934
1.16272
1.18428
1.36173
1.80608
2.14186
1.70772
1.26257
1.0754
1.01793
1.0041
1.00113
1.00046
1.0009
1.00534
1.02599
1.0923
1.25214
1.55
1.9064
1.96892
1.6597
1.34365
1.16386
1.0886
1.06798
1.06909
1.08084
1.12863
1.41908
2.0744
2.12302
1.43366
1.12541
1.04053
1.01594
1.00627
1.00024
1.00008
1.00006
1.00008
1.00022
1.00098
1.00439
1.01759
1.06827
1.25251
1.77246
2.23732
1.68838
1.21459
1.05508
1.02813
1.02263
1.02233
1.02366
1.02556
1.02791
1.03082
1.03453
1.03969
1.04709
1.05683
1.06768
1.07804
1.08705
1.09459
1.10091
1.10651
1.11293
1.12677
1.17062
1.29939
1.60606
2.12438
2.44573
2.1881
1.85977
1.72381
1.72129
1.76856
1.82482
1.87894
1.92635
1.96328
1.98783
1.99926
1.99666
1.97951
1.94845
1.90423
1.84595
1.77189
1.68208
1.58173
1.48317
1.41037
1.41933
1.61922
2.10818
2.40877
1.86733
1.35204
1.12504
1.04356
1.01603
1.0063
1.00289
1.00361
1.01467
1.05854
1.17961
1.43326
1.80454
1.99938
1.75825
1.40538
1.17864
1.07105
1.03109
1.02104
1.02157
1.03041
1.0849
1.39146
1.99665
1.87102
1.26831
1.05616
1.01189
1.00345
1.00109
1.00004
1.00001
1.00001
1.00001
1.00002
1.00015
1.0009
1.00534
1.03108
1.15246
1.55389
2.10321
1.76824
1.28875
1.11224
1.08623
1.0882
1.09363
1.10007
1.10717
1.11534
1.12513
1.13701
1.15198
1.17127
1.19473
1.21996
1.24383
1.26461
1.28199
1.29649
1.30919
1.32304
1.34959
1.42465
1.62113
1.99726
2.31063
2.0862
1.66441
1.42438
1.35033
1.35824
1.39515
1.44231
1.49701
1.55798
1.62156
1.6838
1.74287
1.79887
1.85317
1.90456
1.94957
1.98316
1.99957
1.99136
1.95326
1.89281
1.8435
1.88227
2.13847
2.67409
2.86137
2.1615
1.54291
1.24599
1.11577
1.05588
1.02703
1.01414
1.01361
1.03672
1.11867
1.31744
1.66819
1.98448
1.87138
1.50374
1.22872
1.08799
1.02999
1.01156
1.00851
1.0114
1.02641
1.1123
1.47326
2.019
1.70262
1.17567
1.02694
1.00337
1.0006
1.00014
1.00024
1.00012
1.00005
1.00002
1.00001
1.00002
1.00019
1.0019
1.01623
1.09831
1.41018
2.03838
2.03689
1.53415
1.29645
1.25503
1.26458
1.27921
1.29553
1.31308
1.33279
1.35569
1.38266
1.41444
1.45177
1.49353
1.53596
1.57483
1.60794
1.63503
1.6571
1.67605
1.69711
1.74081
1.86618
2.16823
2.57158
2.44316
1.80968
1.37184
1.19019
1.14222
1.14551
1.16372
1.1879
1.21814
1.2546
1.29548
1.3383
1.38142
1.42511
1.47246
1.52774
1.59274
1.66592
1.74644
1.83965
1.96
2.12269
2.32672
2.56677
2.88137
3.22858
3.14421
2.47285
1.85278
1.48635
1.28014
1.15941
1.08914
1.05235
1.04507
1.08557
1.22184
1.51475
1.90545
1.98504
1.64269
1.31013
1.12733
1.04801
1.0207
1.01559
1.01995
1.03129
1.06512
1.20927
1.65939
2.0965
1.59401
1.13142
1.01864
1.00259
1.00054
1.00026
1.00278
1.00154
1.00073
1.00033
1.00013
1.00004
1.00006
1.0009
1.00987
1.06847
1.3166
1.9846
2.47637
2.02922
1.67259
1.59246
1.60824
1.63035
1.65601
1.6836
1.71344
1.7462
1.78206
1.82003
1.85828
1.89417
1.92473
1.94834
1.96528
1.97688
1.98479
1.99123
2.00378
2.05301
2.22236
2.62278
2.99052
2.45765
1.65181
1.23624
1.08609
1.04989
1.04953
1.05685
1.06704
1.08057
1.09767
1.11734
1.13829
1.15972
1.18194
1.20681
1.23738
1.27577
1.32306
1.38301
1.47475
1.64712
1.97736
2.5052
3.03067
3.16247
2.95743
2.68356
2.39898
2.10997
1.83006
1.5774
1.37613
1.23584
1.15233
1.12711
1.18806
1.39314
1.77487
2.0772
1.86359
1.46029
1.20805
1.09522
1.05584
1.0485
1.05569
1.0737
1.10535
1.17747
1.41458
1.99174
2.2452
1.56697
1.13806
1.03294
1.0116
1.00508
1.00315
1.01759
1.01138
1.00659
1.00361
1.00168
1.0006
1.00023
1.00062
1.00705
1.05364
1.26627
1.93531
2.86243
2.61281
2.10883
1.96203
1.96778
1.97635
1.98484
1.99232
1.9978
2
1.99742
1.98866
1.97346
1.95299
1.9294
1.90502
1.88179
1.86098
1.84305
1.829
1.82551
1.86112
2.01396
2.39792
2.80587
2.36048
1.58981
1.19023
1.0492
1.01606
1.01367
1.01608
1.01965
1.02474
1.03145
1.03931
1.04771
1.05634
1.06552
1.07644
1.09056
1.10871
1.13207
1.16745
1.2404
1.41235
1.78445
2.39814
2.83809
2.59182
2.15969
1.93732
1.91283
1.98324
2.01737
1.9194
1.71948
1.51309
1.3639
1.30839
1.39352
1.68051
2.11203
2.19931
1.77898
1.39838
1.21228
1.1463
1.13508
1.14669
1.17298
1.21699
1.28633
1.42153
1.7902
2.50496
2.49356
1.65994
1.2221
1.09355
1.04948
1.02843
1.01958
1.07145
1.05187
1.03429
1.02135
1.01187
1.00584
1.00298
1.00204
1.00732
1.05147
1.25739
1.9084
2.83077
2.59185