       N       E                     dE             d eps       ncg     rms          rms(c)
DAV:   1     0.902284979111E+01    0.90228E+01   -0.42006E+03  3300   0.889E+02
DAV:   2    -0.142947965268E+02   -0.23318E+02   -0.21995E+02  4212   0.997E+01
DAV:   3    -0.150633206440E+02   -0.76852E+00   -0.74049E+00  4378   0.165E+01
DAV:   4    -0.150697968398E+02   -0.64762E-02   -0.64548E-02  4072   0.156E+00
DAV:   5    -0.150698443581E+02   -0.47518E-04   -0.47516E-04  4028   0.153E-01    0.259E+00
DAV:   6    -0.150178479221E+02    0.51996E-01   -0.64684E-03  3720   0.628E-01    0.151E+00
DAV:   7    -0.149799797085E+02    0.37868E-01   -0.18471E-02  3522   0.989E-01    0.258E-01
DAV:   8    -0.149798772346E+02    0.10247E-03   -0.14731E-04  4194   0.110E-01    0.183E-02
DAV:   9    -0.149798699172E+02    0.73174E-05   -0.53353E-06  3868   0.159E-02    0.321E-03
DAV:  10    -0.149798679223E+02    0.19949E-05   -0.46573E-08  4490   0.216E-03    0.285E-03
DAV:  11    -0.149798674790E+02    0.44334E-06   -0.15296E-09  2316   0.459E-04    0.177E-04
DAV:  12    -0.149798674787E+02    0.31781E-09   -0.20250E-10  2072   0.124E-04
   1 F= -.14979867E+02 E0= -.14979474E+02  d E =-.149799E+02
       N       E                     dE             d eps       ncg     rms          rms(c)
DAV:   1    -0.149811239746E+02   -0.12565E-02   -0.17172E-02  3678   0.861E-01    0.110E-01
DAV:   2    -0.149810479036E+02    0.76071E-04   -0.11529E-04  3580   0.802E-02    0.438E-02
DAV:   3    -0.149809999761E+02    0.47928E-04   -0.13497E-05  3512   0.234E-02    0.152E-02
DAV:   4    -0.149809946374E+02    0.53387E-05   -0.30049E-06  3580   0.108E-02    0.819E-03
DAV:   5    -0.149809948498E+02   -0.21240E-06   -0.40945E-08  3670   0.204E-03    0.178E-04
DAV:   6    -0.149809948439E+02    0.58830E-08   -0.29056E-10  1850   0.185E-04
   2 F= -.14980995E+02 E0= -.14980666E+02  d E =-.112737E-02
       N       E                     dE             d eps       ncg     rms          rms(c)
DAV:   1    -0.149810184754E+02   -0.23626E-04   -0.23897E-04  3684   0.102E-01    0.130E-02
DAV:   2    -0.149810169133E+02    0.15621E-05   -0.15941E-06  3582   0.943E-03    0.518E-03
DAV:   3    -0.149810157283E+02    0.11850E-05   -0.18726E-07  3488   0.276E-03    0.179E-03
DAV:   4    -0.149810153748E+02    0.35350E-06   -0.41170E-08  3500   0.126E-03    0.962E-04
DAV:   5    -0.149810153488E+02    0.25998E-07   -0.49198E-10  1764   0.245E-04    0.165E-05
DAV:   6    -0.149810153505E+02   -0.16905E-08   -0.73500E-11  1726   0.868E-05
   3 F= -.14981015E+02 E0= -.14980678E+02  d E =-.114787E-02
