 vasp.5.4.1 24Jun15 (build Nov 27 2017 14:44:51) complex                        
  
 executed on           IFC91_ompi date 2018.09.04  11:56:51
 running on   12 total cores
 distrk:  each k-point on   12 cores,    1 groups
 distr:  one band on NCORES_PER_BAND=   6 cores,    2 groups


--------------------------------------------------------------------------------------------------------


 INCAR:
 POTCAR:    PAW_PBE Al 04Jan2001                  
 POTCAR:    PAW_PBE Al 04Jan2001                  
   VRHFIN =Al: s2p1                                                             
   LEXCH  = PE                                                                  
   EATOM  =    53.5387 eV,    3.9350 Ry                                         
                                                                                
   TITEL  = PAW_PBE Al 04Jan2001                                                
   LULTRA =        F    use ultrasoft PP ?                                      
   IUNSCR =        1    unscreen: 0-lin 1-nonlin 2-no                           
   RPACOR =    1.500    partial core radius                                     
   POMASS =   26.981; ZVAL   =    3.000    mass and valenz                      
   RCORE  =    1.900    outmost cutoff radius                                   
   RWIGS  =    2.650; RWIGS  =    1.402    wigner-seitz radius (au A)           
   ENMAX  =  240.300; ENMIN  =  180.225 eV                                      
   ICORE  =        2    local potential                                         
   LCOR   =        T    correct aug charges                                     
   LPAW   =        T    paw PP                                                  
   EAUG   =  291.052                                                            
   DEXC   =    0.000                                                            
   RMAX   =    1.939    core radius for proj-oper                               
   RAUG   =    1.300    factor for augmentation sphere                          
   RDEP   =    1.966    radius for radial grids                                 
   RDEPT  =    1.856    core radius for aug-charge                              
                                                                                
   Atomic configuration                                                         
    6 entries                                                                   
     n  l   j            E        occ.                                          
     1  0  0.50     -1511.1048   2.0000                                         
     2  0  0.50      -108.1629   2.0000                                         
     2  1  1.50       -69.6402   6.0000                                         
     3  0  0.50        -7.7528   2.0000                                         
     3  1  1.50        -2.7121   1.0000                                         
     3  2  2.50        -2.7212   0.0000                                         
   Description                                                                  
     l       E           TYP  RCUT    TYP  RCUT                                 
     0     -7.7528455     23  1.900                                             
     0     -3.3096929     23  1.900                                             
     1     -2.7120682     23  1.900                                             
     1     13.6058260     23  1.900                                             
     2     -2.7211652      7  1.900                                             
  local pseudopotential read in
  partial core-charges read in
  partial kinetic energy density read in
  atomic valenz-charges read in
  non local Contribution for L=           0  read in
    real space projection operators read in
  non local Contribution for L=           0  read in
    real space projection operators read in
  non local Contribution for L=           1  read in
    real space projection operators read in
  non local Contribution for L=           1  read in
    real space projection operators read in
    PAW grid and wavefunctions read in
 
   number of l-projection  operators is LMAX  =           4
   number of lm-projection operators is LMMAX =           8
 
  PAW_PBE Al 04Jan2001                  :
 energy of atom  1       EATOM=  -53.5387
 kinetic energy error for atom=    0.0003 (will be added to EATOM!!)
 
 
 POSCAR: CIF file                                
  positions in direct lattice
  No initial velocities read in
 exchange correlation table for  LEXCH =        8
   RHO(1)=    0.500       N(1)  =     2000
   RHO(2)=  100.500       N(2)  =     4000
 


--------------------------------------------------------------------------------------------------------


 ion  position               nearest neighbor table
   1  0.000  0.000  0.000-   2 2.86   3 2.86   4 2.86   3 2.86   4 2.86   2 2.86   4 2.86   4 2.86
                             2 2.86   3 2.86   3 2.86   2 2.86
   2  0.500  0.500  0.000-   1 2.86   3 2.86   4 2.86   3 2.86   4 2.86   1 2.86   3 2.86   3 2.86
                             1 2.86   4 2.86   4 2.86   1 2.86
   3  0.500  0.000  0.500-   1 2.86   2 2.86   4 2.86   1 2.86   2 2.86   2 2.86   4 2.86   2 2.86
                             1 2.86   4 2.86   1 2.86   4 2.86
   4  0.000  0.500  0.500-   1 2.86   2 2.86   3 2.86   1 2.86   2 2.86   1 2.86   3 2.86   1 2.86
                             2 2.86   3 2.86   2 2.86   3 2.86
 
  LATTYP: Found a simple cubic cell.
 ALAT       =     4.0500000000
  
  Lattice vectors:
  
 A1 = (   4.0500000000,   0.0000000000,   0.0000000000)
 A2 = (   0.0000000000,   4.0500000000,   0.0000000000)
 A3 = (   0.0000000000,   0.0000000000,   4.0500000000)


Analysis of symmetry for initial positions (statically):
=====================================================================
 Subroutine PRICEL returns following result:
 
  LATTYP: Found a face centered cubic cell.
 ALAT       =     4.0500000000
  
  Lattice vectors:
  
 A1 = (   2.0250000000,   2.0250000000,   0.0000000000)
 A2 = (   2.0250000000,   0.0000000000,  -2.0250000000)
 A3 = (   0.0000000000,   2.0250000000,  -2.0250000000)
 
   4 primitive cells build up your supercell.
 

 Routine SETGRP: Setting up the symmetry group for a 
 simple cubic supercell.


 Subroutine GETGRP returns: Found 48 space group operations
 (whereof 48 operations were pure point group operations)
 out of a pool of 48 trial point group operations.


The static configuration has the point symmetry O_h .


Analysis of symmetry for dynamics (positions and initial velocities):
=====================================================================
 Subroutine PRICEL returns following result:
 
  LATTYP: Found a face centered cubic cell.
 ALAT       =     4.0500000000
  
  Lattice vectors:
  
 A1 = (   2.0250000000,   2.0250000000,   0.0000000000)
 A2 = (   2.0250000000,   0.0000000000,  -2.0250000000)
 A3 = (   0.0000000000,   2.0250000000,  -2.0250000000)
 
   4 primitive cells build up your supercell.
 

 Routine SETGRP: Setting up the symmetry group for a 
 simple cubic supercell.


 Subroutine GETGRP returns: Found 48 space group operations
 (whereof 48 operations were pure point group operations)
 out of a pool of 48 trial point group operations.


The dynamic configuration has the point symmetry O_h .


 Subroutine INISYM returns: Found 48 space group operations
 (whereof 48 operations are pure point group operations),
 and found     4 'primitive' translations

 
 
 KPOINTS: KPOINTS file                            

Automatic generation of k-mesh.
Space group operators:
 irot       det(A)        alpha          n_x          n_y          n_z        tau_x        tau_y        tau_z
    1     1.000000     0.000001     1.000000     0.000000     0.000000     0.000000     0.000000     0.000000
    2    -1.000000     0.000001     1.000000     0.000000     0.000000     0.000000     0.000000     0.000000
    3     1.000000   120.000000    -0.577350    -0.577350    -0.577350     0.000000     0.000000     0.000000
    4    -1.000000   120.000000    -0.577350    -0.577350    -0.577350     0.000000     0.000000     0.000000
    5     1.000000   120.000000     0.577350     0.577350     0.577350     0.000000     0.000000     0.000000
    6    -1.000000   120.000000     0.577350     0.577350     0.577350     0.000000     0.000000     0.000000
    7     1.000000    90.000000     0.000000     0.000000    -1.000000     0.000000     0.000000     0.000000
    8    -1.000000    90.000000     0.000000     0.000000    -1.000000     0.000000     0.000000     0.000000
    9     1.000000   180.000000     0.000000     0.707107     0.707107     0.000000     0.000000     0.000000
   10    -1.000000   180.000000     0.000000     0.707107     0.707107     0.000000     0.000000     0.000000
   11     1.000000    90.000000     0.000000     1.000000     0.000000     0.000000     0.000000     0.000000
   12    -1.000000    90.000000     0.000000     1.000000     0.000000     0.000000     0.000000     0.000000
   13     1.000000   180.000000     0.000000     0.000000     1.000000     0.000000     0.000000     0.000000
   14    -1.000000   180.000000     0.000000     0.000000     1.000000     0.000000     0.000000     0.000000
   15     1.000000   120.000000    -0.577350     0.577350     0.577350     0.000000     0.000000     0.000000
   16    -1.000000   120.000000    -0.577350     0.577350     0.577350     0.000000     0.000000     0.000000
   17     1.000000   120.000000    -0.577350     0.577350    -0.577350     0.000000     0.000000     0.000000
   18    -1.000000   120.000000    -0.577350     0.577350    -0.577350     0.000000     0.000000     0.000000
   19     1.000000    90.000000     0.000000     0.000000     1.000000     0.000000     0.000000     0.000000
   20    -1.000000    90.000000     0.000000     0.000000     1.000000     0.000000     0.000000     0.000000
   21     1.000000    90.000000    -1.000000     0.000000     0.000000     0.000000     0.000000     0.000000
   22    -1.000000    90.000000    -1.000000     0.000000     0.000000     0.000000     0.000000     0.000000
   23     1.000000   180.000000     0.707107     0.000000     0.707107     0.000000     0.000000     0.000000
   24    -1.000000   180.000000     0.707107     0.000000     0.707107     0.000000     0.000000     0.000000
   25     1.000000   120.000000     0.577350    -0.577350     0.577350     0.000000     0.000000     0.000000
   26    -1.000000   120.000000     0.577350    -0.577350     0.577350     0.000000     0.000000     0.000000
   27     1.000000   120.000000    -0.577350    -0.577350     0.577350     0.000000     0.000000     0.000000
   28    -1.000000   120.000000    -0.577350    -0.577350     0.577350     0.000000     0.000000     0.000000
   29     1.000000   180.000000     1.000000     0.000000     0.000000     0.000000     0.000000     0.000000
   30    -1.000000   180.000000     1.000000     0.000000     0.000000     0.000000     0.000000     0.000000
   31     1.000000    90.000000     0.000000    -1.000000     0.000000     0.000000     0.000000     0.000000
   32    -1.000000    90.000000     0.000000    -1.000000     0.000000     0.000000     0.000000     0.000000
   33     1.000000   180.000000     0.707107     0.707107     0.000000     0.000000     0.000000     0.000000
   34    -1.000000   180.000000     0.707107     0.707107     0.000000     0.000000     0.000000     0.000000
   35     1.000000    90.000000     1.000000     0.000000     0.000000     0.000000     0.000000     0.000000
   36    -1.000000    90.000000     1.000000     0.000000     0.000000     0.000000     0.000000     0.000000
   37     1.000000   120.000000     0.577350    -0.577350    -0.577350     0.000000     0.000000     0.000000
   38    -1.000000   120.000000     0.577350    -0.577350    -0.577350     0.000000     0.000000     0.000000
   39     1.000000   180.000000     0.000000     1.000000     0.000000     0.000000     0.000000     0.000000
   40    -1.000000   180.000000     0.000000     1.000000     0.000000     0.000000     0.000000     0.000000
   41     1.000000   120.000000     0.577350     0.577350    -0.577350     0.000000     0.000000     0.000000
   42    -1.000000   120.000000     0.577350     0.577350    -0.577350     0.000000     0.000000     0.000000
   43     1.000000   180.000000     0.000000    -0.707107     0.707107     0.000000     0.000000     0.000000
   44    -1.000000   180.000000     0.000000    -0.707107     0.707107     0.000000     0.000000     0.000000
   45     1.000000   180.000000     0.707107    -0.707107     0.000000     0.000000     0.000000     0.000000
   46    -1.000000   180.000000     0.707107    -0.707107     0.000000     0.000000     0.000000     0.000000
   47     1.000000   180.000000     0.707107     0.000000    -0.707107     0.000000     0.000000     0.000000
   48    -1.000000   180.000000     0.707107     0.000000    -0.707107     0.000000     0.000000     0.000000
 
 Subroutine IBZKPT returns following result:
 ===========================================
 
 Found    165 irreducible k-points:
 
 Following reciprocal coordinates:
            Coordinates               Weight
  0.000000  0.000000  0.000000      1.000000
  0.058824  0.000000  0.000000      6.000000
  0.117647  0.000000  0.000000      6.000000
  0.176471  0.000000  0.000000      6.000000
  0.235294  0.000000  0.000000      6.000000
  0.294118  0.000000  0.000000      6.000000
  0.352941  0.000000  0.000000      6.000000
  0.411765  0.000000  0.000000      6.000000
  0.470588  0.000000  0.000000      6.000000
  0.058824  0.058824  0.000000     12.000000
  0.117647  0.058824  0.000000     24.000000
  0.176471  0.058824  0.000000     24.000000
  0.235294  0.058824  0.000000     24.000000
  0.294118  0.058824  0.000000     24.000000
  0.352941  0.058824  0.000000     24.000000
  0.411765  0.058824  0.000000     24.000000
  0.470588  0.058824  0.000000     24.000000
  0.117647  0.117647  0.000000     12.000000
  0.176471  0.117647  0.000000     24.000000
  0.235294  0.117647  0.000000     24.000000
  0.294118  0.117647  0.000000     24.000000
  0.352941  0.117647  0.000000     24.000000
  0.411765  0.117647  0.000000     24.000000
  0.470588  0.117647  0.000000     24.000000
  0.176471  0.176471  0.000000     12.000000
  0.235294  0.176471  0.000000     24.000000
  0.294118  0.176471  0.000000     24.000000
  0.352941  0.176471  0.000000     24.000000
  0.411765  0.176471  0.000000     24.000000
  0.470588  0.176471  0.000000     24.000000
  0.235294  0.235294  0.000000     12.000000
  0.294118  0.235294  0.000000     24.000000
  0.352941  0.235294  0.000000     24.000000
  0.411765  0.235294  0.000000     24.000000
  0.470588  0.235294  0.000000     24.000000
  0.294118  0.294118  0.000000     12.000000
  0.352941  0.294118  0.000000     24.000000
  0.411765  0.294118  0.000000     24.000000
  0.470588  0.294118  0.000000     24.000000
  0.352941  0.352941  0.000000     12.000000
  0.411765  0.352941  0.000000     24.000000
  0.470588  0.352941  0.000000     24.000000
  0.411765  0.411765  0.000000     12.000000
  0.470588  0.411765  0.000000     24.000000
  0.470588  0.470588  0.000000     12.000000
  0.058824  0.058824  0.058824      8.000000
  0.117647  0.058824  0.058824     24.000000
  0.176471  0.058824  0.058824     24.000000
  0.235294  0.058824  0.058824     24.000000
  0.294118  0.058824  0.058824     24.000000
  0.352941  0.058824  0.058824     24.000000
  0.411765  0.058824  0.058824     24.000000
  0.470588  0.058824  0.058824     24.000000
  0.117647  0.117647  0.058824     24.000000
  0.176471  0.117647  0.058824     48.000000
  0.235294  0.117647  0.058824     48.000000
  0.294118  0.117647  0.058824     48.000000
  0.352941  0.117647  0.058824     48.000000
  0.411765  0.117647  0.058824     48.000000
  0.470588  0.117647  0.058824     48.000000
  0.176471  0.176471  0.058824     24.000000
  0.235294  0.176471  0.058824     48.000000
  0.294118  0.176471  0.058824     48.000000
  0.352941  0.176471  0.058824     48.000000
  0.411765  0.176471  0.058824     48.000000
  0.470588  0.176471  0.058824     48.000000
  0.235294  0.235294  0.058824     24.000000
  0.294118  0.235294  0.058824     48.000000
  0.352941  0.235294  0.058824     48.000000
  0.411765  0.235294  0.058824     48.000000
  0.470588  0.235294  0.058824     48.000000
  0.294118  0.294118  0.058824     24.000000
  0.352941  0.294118  0.058824     48.000000
  0.411765  0.294118  0.058824     48.000000
  0.470588  0.294118  0.058824     48.000000
  0.352941  0.352941  0.058824     24.000000
  0.411765  0.352941  0.058824     48.000000
  0.470588  0.352941  0.058824     48.000000
  0.411765  0.411765  0.058824     24.000000
  0.470588  0.411765  0.058824     48.000000
  0.470588  0.470588  0.058824     24.000000
  0.117647  0.117647  0.117647      8.000000
  0.176471  0.117647  0.117647     24.000000
  0.235294  0.117647  0.117647     24.000000
  0.294118  0.117647  0.117647     24.000000
  0.352941  0.117647  0.117647     24.000000
  0.411765  0.117647  0.117647     24.000000
  0.470588  0.117647  0.117647     24.000000
  0.176471  0.176471  0.117647     24.000000
  0.235294  0.176471  0.117647     48.000000
  0.294118  0.176471  0.117647     48.000000
  0.352941  0.176471  0.117647     48.000000
  0.411765  0.176471  0.117647     48.000000
  0.470588  0.176471  0.117647     48.000000
  0.235294  0.235294  0.117647     24.000000
  0.294118  0.235294  0.117647     48.000000
  0.352941  0.235294  0.117647     48.000000
  0.411765  0.235294  0.117647     48.000000
  0.470588  0.235294  0.117647     48.000000
  0.294118  0.294118  0.117647     24.000000
  0.352941  0.294118  0.117647     48.000000
  0.411765  0.294118  0.117647     48.000000
  0.470588  0.294118  0.117647     48.000000
  0.352941  0.352941  0.117647     24.000000
  0.411765  0.352941  0.117647     48.000000
  0.470588  0.352941  0.117647     48.000000
  0.411765  0.411765  0.117647     24.000000
  0.470588  0.411765  0.117647     48.000000
  0.470588  0.470588  0.117647     24.000000
  0.176471  0.176471  0.176471      8.000000
  0.235294  0.176471  0.176471     24.000000
  0.294118  0.176471  0.176471     24.000000
  0.352941  0.176471  0.176471     24.000000
  0.411765  0.176471  0.176471     24.000000
  0.470588  0.176471  0.176471     24.000000
  0.235294  0.235294  0.176471     24.000000
  0.294118  0.235294  0.176471     48.000000
  0.352941  0.235294  0.176471     48.000000
  0.411765  0.235294  0.176471     48.000000
  0.470588  0.235294  0.176471     48.000000
  0.294118  0.294118  0.176471     24.000000
  0.352941  0.294118  0.176471     48.000000
  0.411765  0.294118  0.176471     48.000000
  0.470588  0.294118  0.176471     48.000000
  0.352941  0.352941  0.176471     24.000000
  0.411765  0.352941  0.176471     48.000000
  0.470588  0.352941  0.176471     48.000000
  0.411765  0.411765  0.176471     24.000000
  0.470588  0.411765  0.176471     48.000000
  0.470588  0.470588  0.176471     24.000000
  0.235294  0.235294  0.235294      8.000000
  0.294118  0.235294  0.235294     24.000000
  0.352941  0.235294  0.235294     24.000000
  0.411765  0.235294  0.235294     24.000000
  0.470588  0.235294  0.235294     24.000000
  0.294118  0.294118  0.235294     24.000000
  0.352941  0.294118  0.235294     48.000000
  0.411765  0.294118  0.235294     48.000000
  0.470588  0.294118  0.235294     48.000000
  0.352941  0.352941  0.235294     24.000000
  0.411765  0.352941  0.235294     48.000000
  0.470588  0.352941  0.235294     48.000000
  0.411765  0.411765  0.235294     24.000000
  0.470588  0.411765  0.235294     48.000000
  0.470588  0.470588  0.235294     24.000000
  0.294118  0.294118  0.294118      8.000000
  0.352941  0.294118  0.294118     24.000000
  0.411765  0.294118  0.294118     24.000000
  0.470588  0.294118  0.294118     24.000000
  0.352941  0.352941  0.294118     24.000000
  0.411765  0.352941  0.294118     48.000000
  0.470588  0.352941  0.294118     48.000000
  0.411765  0.411765  0.294118     24.000000
  0.470588  0.411765  0.294118     48.000000
  0.470588  0.470588  0.294118     24.000000
  0.352941  0.352941  0.352941      8.000000
  0.411765  0.352941  0.352941     24.000000
  0.470588  0.352941  0.352941     24.000000
  0.411765  0.411765  0.352941     24.000000
  0.470588  0.411765  0.352941     48.000000
  0.470588  0.470588  0.352941     24.000000
  0.411765  0.411765  0.411765      8.000000
  0.470588  0.411765  0.411765     24.000000
  0.470588  0.470588  0.411765     24.000000
  0.470588  0.470588  0.470588      8.000000
 
 Following cartesian coordinates:
            Coordinates               Weight
  0.000000  0.000000  0.000000      1.000000
  0.058824  0.000000  0.000000      6.000000
  0.117647  0.000000  0.000000      6.000000
  0.176471  0.000000  0.000000      6.000000
  0.235294  0.000000  0.000000      6.000000
  0.294118  0.000000  0.000000      6.000000
  0.352941  0.000000  0.000000      6.000000
  0.411765  0.000000  0.000000      6.000000
  0.470588  0.000000  0.000000      6.000000
  0.058824  0.058824  0.000000     12.000000
  0.117647  0.058824  0.000000     24.000000
  0.176471  0.058824  0.000000     24.000000
  0.235294  0.058824  0.000000     24.000000
  0.294118  0.058824  0.000000     24.000000
  0.352941  0.058824  0.000000     24.000000
  0.411765  0.058824  0.000000     24.000000
  0.470588  0.058824  0.000000     24.000000
  0.117647  0.117647  0.000000     12.000000
  0.176471  0.117647  0.000000     24.000000
  0.235294  0.117647  0.000000     24.000000
  0.294118  0.117647  0.000000     24.000000
  0.352941  0.117647  0.000000     24.000000
  0.411765  0.117647  0.000000     24.000000
  0.470588  0.117647  0.000000     24.000000
  0.176471  0.176471  0.000000     12.000000
  0.235294  0.176471  0.000000     24.000000
  0.294118  0.176471  0.000000     24.000000
  0.352941  0.176471  0.000000     24.000000
  0.411765  0.176471  0.000000     24.000000
  0.470588  0.176471  0.000000     24.000000
  0.235294  0.235294  0.000000     12.000000
  0.294118  0.235294  0.000000     24.000000
  0.352941  0.235294  0.000000     24.000000
  0.411765  0.235294  0.000000     24.000000
  0.470588  0.235294  0.000000     24.000000
  0.294118  0.294118  0.000000     12.000000
  0.352941  0.294118  0.000000     24.000000
  0.411765  0.294118  0.000000     24.000000
  0.470588  0.294118  0.000000     24.000000
  0.352941  0.352941  0.000000     12.000000
  0.411765  0.352941  0.000000     24.000000
  0.470588  0.352941  0.000000     24.000000
  0.411765  0.411765  0.000000     12.000000
  0.470588  0.411765  0.000000     24.000000
  0.470588  0.470588  0.000000     12.000000
  0.058824  0.058824  0.058824      8.000000
  0.117647  0.058824  0.058824     24.000000
  0.176471  0.058824  0.058824     24.000000
  0.235294  0.058824  0.058824     24.000000
  0.294118  0.058824  0.058824     24.000000
  0.352941  0.058824  0.058824     24.000000
  0.411765  0.058824  0.058824     24.000000
  0.470588  0.058824  0.058824     24.000000
  0.117647  0.117647  0.058824     24.000000
  0.176471  0.117647  0.058824     48.000000
  0.235294  0.117647  0.058824     48.000000
  0.294118  0.117647  0.058824     48.000000
  0.352941  0.117647  0.058824     48.000000
  0.411765  0.117647  0.058824     48.000000
  0.470588  0.117647  0.058824     48.000000
  0.176471  0.176471  0.058824     24.000000
  0.235294  0.176471  0.058824     48.000000
  0.294118  0.176471  0.058824     48.000000
  0.352941  0.176471  0.058824     48.000000
  0.411765  0.176471  0.058824     48.000000
  0.470588  0.176471  0.058824     48.000000
  0.235294  0.235294  0.058824     24.000000
  0.294118  0.235294  0.058824     48.000000
  0.352941  0.235294  0.058824     48.000000
  0.411765  0.235294  0.058824     48.000000
  0.470588  0.235294  0.058824     48.000000
  0.294118  0.294118  0.058824     24.000000
  0.352941  0.294118  0.058824     48.000000
  0.411765  0.294118  0.058824     48.000000
  0.470588  0.294118  0.058824     48.000000
  0.352941  0.352941  0.058824     24.000000
  0.411765  0.352941  0.058824     48.000000
  0.470588  0.352941  0.058824     48.000000
  0.411765  0.411765  0.058824     24.000000
  0.470588  0.411765  0.058824     48.000000
  0.470588  0.470588  0.058824     24.000000
  0.117647  0.117647  0.117647      8.000000
  0.176471  0.117647  0.117647     24.000000
  0.235294  0.117647  0.117647     24.000000
  0.294118  0.117647  0.117647     24.000000
  0.352941  0.117647  0.117647     24.000000
  0.411765  0.117647  0.117647     24.000000
  0.470588  0.117647  0.117647     24.000000
  0.176471  0.176471  0.117647     24.000000
  0.235294  0.176471  0.117647     48.000000
  0.294118  0.176471  0.117647     48.000000
  0.352941  0.176471  0.117647     48.000000
  0.411765  0.176471  0.117647     48.000000
  0.470588  0.176471  0.117647     48.000000
  0.235294  0.235294  0.117647     24.000000
  0.294118  0.235294  0.117647     48.000000
  0.352941  0.235294  0.117647     48.000000
  0.411765  0.235294  0.117647     48.000000
  0.470588  0.235294  0.117647     48.000000
  0.294118  0.294118  0.117647     24.000000
  0.352941  0.294118  0.117647     48.000000
  0.411765  0.294118  0.117647     48.000000
  0.470588  0.294118  0.117647     48.000000
  0.352941  0.352941  0.117647     24.000000
  0.411765  0.352941  0.117647     48.000000
  0.470588  0.352941  0.117647     48.000000
  0.411765  0.411765  0.117647     24.000000
  0.470588  0.411765  0.117647     48.000000
  0.470588  0.470588  0.117647     24.000000
  0.176471  0.176471  0.176471      8.000000
  0.235294  0.176471  0.176471     24.000000
  0.294118  0.176471  0.176471     24.000000
  0.352941  0.176471  0.176471     24.000000
  0.411765  0.176471  0.176471     24.000000
  0.470588  0.176471  0.176471     24.000000
  0.235294  0.235294  0.176471     24.000000
  0.294118  0.235294  0.176471     48.000000
  0.352941  0.235294  0.176471     48.000000
  0.411765  0.235294  0.176471     48.000000
  0.470588  0.235294  0.176471     48.000000
  0.294118  0.294118  0.176471     24.000000
  0.352941  0.294118  0.176471     48.000000
  0.411765  0.294118  0.176471     48.000000
  0.470588  0.294118  0.176471     48.000000
  0.352941  0.352941  0.176471     24.000000
  0.411765  0.352941  0.176471     48.000000
  0.470588  0.352941  0.176471     48.000000
  0.411765  0.411765  0.176471     24.000000
  0.470588  0.411765  0.176471     48.000000
  0.470588  0.470588  0.176471     24.000000
  0.235294  0.235294  0.235294      8.000000
  0.294118  0.235294  0.235294     24.000000
  0.352941  0.235294  0.235294     24.000000
  0.411765  0.235294  0.235294     24.000000
  0.470588  0.235294  0.235294     24.000000
  0.294118  0.294118  0.235294     24.000000
  0.352941  0.294118  0.235294     48.000000
  0.411765  0.294118  0.235294     48.000000
  0.470588  0.294118  0.235294     48.000000
  0.352941  0.352941  0.235294     24.000000
  0.411765  0.352941  0.235294     48.000000
  0.470588  0.352941  0.235294     48.000000
  0.411765  0.411765  0.235294     24.000000
  0.470588  0.411765  0.235294     48.000000
  0.470588  0.470588  0.235294     24.000000
  0.294118  0.294118  0.294118      8.000000
  0.352941  0.294118  0.294118     24.000000
  0.411765  0.294118  0.294118     24.000000
  0.470588  0.294118  0.294118     24.000000
  0.352941  0.352941  0.294118     24.000000
  0.411765  0.352941  0.294118     48.000000
  0.470588  0.352941  0.294118     48.000000
  0.411765  0.411765  0.294118     24.000000
  0.470588  0.411765  0.294118     48.000000
  0.470588  0.470588  0.294118     24.000000
  0.352941  0.352941  0.352941      8.000000
  0.411765  0.352941  0.352941     24.000000
  0.470588  0.352941  0.352941     24.000000
  0.411765  0.411765  0.352941     24.000000
  0.470588  0.411765  0.352941     48.000000
  0.470588  0.470588  0.352941     24.000000
  0.411765  0.411765  0.411765      8.000000
  0.470588  0.411765  0.411765     24.000000
  0.470588  0.470588  0.411765     24.000000
  0.470588  0.470588  0.470588      8.000000
 


--------------------------------------------------------------------------------------------------------




 Dimension of arrays:
   k-points           NKPTS =    165   k-points in BZ     NKDIM =    165   number of bands    NBANDS=     10
   number of dos      NEDOS =    301   number of ions     NIONS =      4
   non local maximal  LDIM  =      4   non local SUM 2l+1 LMDIM =      8
   total plane-waves  NPLWV =  27000
   max r-space proj   IRMAX =      1   max aug-charges    IRDMAX=  16016
   dimension x,y,z NGX =    30 NGY =   30 NGZ =   30
   dimension x,y,z NGXF=    60 NGYF=   60 NGZF=   60
   support grid    NGXF=    60 NGYF=   60 NGZF=   60
   ions per type =               4
 NGX,Y,Z   is equivalent  to a cutoff of  12.31, 12.31, 12.31 a.u.
 NGXF,Y,Z  is equivalent  to a cutoff of  24.63, 24.63, 24.63 a.u.


 I would recommend the setting:
   dimension x,y,z NGX =    30 NGY =   30 NGZ =   30
 SYSTEM =  Al relax                                
 POSCAR =  CIF file                                

 Startparameter for this run:
   NWRITE =      2    write-flag & timer
   PREC   = accura    normal or accurate (medium, high low for compatibility)
   ISTART =      0    job   : 0-new  1-cont  2-samecut
   ICHARG =      2    charge: 1-file 2-atom 10-const
   ISPIN  =      1    spin polarized calculation?
   LNONCOLLINEAR =      F non collinear calculations
   LSORBIT =      F    spin-orbit coupling
   INIWAV =      1    electr: 0-lowe 1-rand  2-diag
   LASPH  =      F    aspherical Exc in radial PAW
   METAGGA=      F    non-selfconsistent MetaGGA calc.

 Electronic Relaxation 1
   ENCUT  =  500.0 eV  36.75 Ry    6.06 a.u.   7.38  7.38  7.38*2*pi/ulx,y,z
   ENINI  =  500.0     initial cutoff
   ENAUG  =  291.1 eV  augmentation charge cutoff
   NELM   =     60;   NELMIN=  2; NELMDL= -5     # of ELM steps 
   EDIFF  = 0.1E-07   stopping-criterion for ELM
   LREAL  =      F    real-space projection
   NLSPLINE    = F    spline interpolate recip. space projectors
   LCOMPAT=      F    compatible to vasp.4.4
   GGA_COMPAT  = T    GGA compatible to vasp.4.4-vasp.4.6
   LMAXPAW     = -100 max onsite density
   LMAXMIX     =    2 max onsite mixed and CHGCAR
   VOSKOWN=      0    Vosko Wilk Nusair interpolation
   ROPT   =    0.00000
 Ionic relaxation
   EDIFFG = -.1E-02   stopping-criterion for IOM
   NSW    =    100    number of steps for IOM
   NBLOCK =      1;   KBLOCK =    100    inner block; outer block 
   IBRION =      2    ionic relax: 0-MD 1-quasi-New 2-CG
   NFREE  =      1    steps in history (QN), initial steepest desc. (CG)
   ISIF   =      3    stress and relaxation
   IWAVPR =     11    prediction:  0-non 1-charg 2-wave 3-comb
   ISYM   =      2    0-nonsym 1-usesym 2-fastsym
   LCORR  =      T    Harris-Foulkes like correction to forces

   POTIM  = 0.5000    time-step for ionic-motion
   TEIN   =    0.0    initial temperature
   TEBEG  =    0.0;   TEEND  =   0.0 temperature during run
   SMASS  =  -3.00    Nose mass-parameter (am)
   estimated Nose-frequenzy (Omega)   =  0.10E-29 period in steps =****** mass=  -0.375E-27a.u.
   SCALEE = 1.0000    scale energy and forces
   NPACO  =    256;   APACO  = 16.0  distance and # of slots for P.C.
   PSTRESS=    0.0 pullay stress

  Mass of Ions in am
   POMASS =  26.98
  Ionic Valenz
   ZVAL   =   3.00
  Atomic Wigner-Seitz radii
   RWIGS  =  -1.00
  virtual crystal weights 
   VCA    =   1.00
   NELECT =      12.0000    total number of electrons
   NUPDOWN=      -1.0000    fix difference up-down

 DOS related values:
   EMIN   =  10.00;   EMAX   =-10.00  energy-range for DOS
   EFERMI =   0.00
   ISMEAR =     2;   SIGMA  =   0.20  broadening in eV -4-tet -1-fermi 0-gaus

 Electronic relaxation 2 (details)
   IALGO  =     38    algorithm
   LDIAG  =      T    sub-space diagonalisation (order eigenvalues)
   LSUBROT=      F    optimize rotation matrix (better conditioning)
   TURBO    =      0    0=normal 1=particle mesh
   IRESTART =      0    0=no restart 2=restart with 2 vectors
   NREBOOT  =      0    no. of reboots
   NMIN     =      0    reboot dimension
   EREF     =   0.00    reference energy to select bands
   IMIX   =      4    mixing-type and parameters
     AMIX     =   0.40;   BMIX     =  1.00
     AMIX_MAG =   1.60;   BMIX_MAG =  1.00
     AMIN     =   0.10
     WC   =   100.;   INIMIX=   1;  MIXPRE=   1;  MAXMIX= -45

 Intra band minimization:
   WEIMIN = 0.0010     energy-eigenvalue tresh-hold
   EBREAK =  0.25E-09  absolut break condition
   DEPER  =   0.30     relativ break condition  

   TIME   =   0.40     timestep for ELM

  volume/ion in A,a.u.               =      16.61       112.07
  Fermi-wavevector in a.u.,A,eV,Ry     =   0.925437  1.748822 11.652489  0.856434
  Thomas-Fermi vector in A             =   2.051291
 
 Write flags
   LWAVE  =      T    write WAVECAR
   LCHARG =      T    write CHGCAR
   LVTOT  =      F    write LOCPOT, total local potential
   LVHAR  =      F    write LOCPOT, Hartree potential only
   LELF   =      F    write electronic localiz. function (ELF)
   LORBIT =      0    0 simple, 1 ext, 2 COOP (PROOUT)


 Dipole corrections
   LMONO  =      F    monopole corrections only (constant potential shift)
   LDIPOL =      F    correct potential (dipole corrections)
   IDIPOL =      0    1-x, 2-y, 3-z, 4-all directions 
   EPSILON=  1.0000000 bulk dielectric constant

 Exchange correlation treatment:
   GGA     =    PE    GGA type
   LEXCH   =     8    internal setting for exchange type
   VOSKOWN=      0    Vosko Wilk Nusair interpolation
   LHFCALC =     F    Hartree Fock is set to
   LHFONE  =     F    Hartree Fock one center treatment
   AEXX    =    0.0000 exact exchange contribution

 Linear response parameters
   LEPSILON=     F    determine dielectric tensor
   LRPA    =     F    only Hartree local field effects (RPA)
   LNABLA  =     F    use nabla operator in PAW spheres
   LVEL    =     F    velocity operator in full k-point grid
   LINTERFAST=   F  fast interpolation
   KINTER  =     0    interpolate to denser k-point grid
   CSHIFT  =0.1000    complex shift for real part using Kramers Kronig
   OMEGAMAX=  -1.0    maximum frequency
   DEG_THRESHOLD= 0.2000000E-02 threshold for treating states as degnerate
   RTIME   =    0.100 relaxation time in fs

 Orbital magnetization related:
   ORBITALMAG=     F  switch on orbital magnetization
   LCHIMAG   =     F  perturbation theory with respect to B field
   DQ        =  0.001000  dq finite difference perturbation B field



--------------------------------------------------------------------------------------------------------


 conjugate gradient relaxation of ions
 charge density and potential will be updated during run
 non-spin polarized calculation
 Variant of blocked Davidson
 Davidson routine will perform the subspace rotation
 perform sub-space diagonalisation
    after iterative eigenvector-optimisation
 modified Broyden-mixing scheme, WC =      100.0
 initial mixing is a Kerker type mixing with AMIX =  0.4000 and BMIX =      1.0000
 Hartree-type preconditioning will be used
 using additional bands            4
 reciprocal scheme for non local part
 use partial core corrections
 calculate Harris-corrections to forces 
   (improved forces if not selfconsistent)
 use gradient corrections 
 use of overlap-Matrix (Vanderbilt PP)
 Methfessel and Paxton  Order N= 2 SIGMA  =   0.20


--------------------------------------------------------------------------------------------------------


  energy-cutoff  :      500.00
  volume of cell :       66.43
      direct lattice vectors                 reciprocal lattice vectors
     4.050000000  0.000000000  0.000000000     0.246913580  0.000000000  0.000000000
     0.000000000  4.050000000  0.000000000     0.000000000  0.246913580  0.000000000
     0.000000000  0.000000000  4.050000000     0.000000000  0.000000000  0.246913580

  length of vectors
     4.050000000  4.050000000  4.050000000     0.246913580  0.246913580  0.246913580


 
 k-points in units of 2pi/SCALE and weight: KPOINTS file                            
   0.00000000  0.00000000  0.00000000       0.000
   0.05882353  0.00000000  0.00000000       0.001
   0.11764706  0.00000000  0.00000000       0.001
   0.17647059  0.00000000  0.00000000       0.001
   0.23529412  0.00000000  0.00000000       0.001
   0.29411765  0.00000000  0.00000000       0.001
   0.35294118  0.00000000  0.00000000       0.001
   0.41176471  0.00000000  0.00000000       0.001
   0.47058824  0.00000000  0.00000000       0.001
   0.05882353  0.05882353  0.00000000       0.002
   0.11764706  0.05882353  0.00000000       0.005
   0.17647059  0.05882353  0.00000000       0.005
   0.23529412  0.05882353  0.00000000       0.005
   0.29411765  0.05882353  0.00000000       0.005
   0.35294118  0.05882353  0.00000000       0.005
   0.41176471  0.05882353  0.00000000       0.005
   0.47058824  0.05882353  0.00000000       0.005
   0.11764706  0.11764706  0.00000000       0.002
   0.17647059  0.11764706  0.00000000       0.005
   0.23529412  0.11764706  0.00000000       0.005
   0.29411765  0.11764706  0.00000000       0.005
   0.35294118  0.11764706  0.00000000       0.005
   0.41176471  0.11764706  0.00000000       0.005
   0.47058824  0.11764706  0.00000000       0.005
   0.17647059  0.17647059  0.00000000       0.002
   0.23529412  0.17647059  0.00000000       0.005
   0.29411765  0.17647059  0.00000000       0.005
   0.35294118  0.17647059  0.00000000       0.005
   0.41176471  0.17647059  0.00000000       0.005
   0.47058824  0.17647059  0.00000000       0.005
   0.23529412  0.23529412  0.00000000       0.002
   0.29411765  0.23529412  0.00000000       0.005
   0.35294118  0.23529412  0.00000000       0.005
   0.41176471  0.23529412  0.00000000       0.005
   0.47058824  0.23529412  0.00000000       0.005
   0.29411765  0.29411765  0.00000000       0.002
   0.35294118  0.29411765  0.00000000       0.005
   0.41176471  0.29411765  0.00000000       0.005
   0.47058824  0.29411765  0.00000000       0.005
   0.35294118  0.35294118  0.00000000       0.002
   0.41176471  0.35294118  0.00000000       0.005
   0.47058824  0.35294118  0.00000000       0.005
   0.41176471  0.41176471  0.00000000       0.002
   0.47058824  0.41176471  0.00000000       0.005
   0.47058824  0.47058824  0.00000000       0.002
   0.05882353  0.05882353  0.05882353       0.002
   0.11764706  0.05882353  0.05882353       0.005
   0.17647059  0.05882353  0.05882353       0.005
   0.23529412  0.05882353  0.05882353       0.005
   0.29411765  0.05882353  0.05882353       0.005
   0.35294118  0.05882353  0.05882353       0.005
   0.41176471  0.05882353  0.05882353       0.005
   0.47058824  0.05882353  0.05882353       0.005
   0.11764706  0.11764706  0.05882353       0.005
   0.17647059  0.11764706  0.05882353       0.010
   0.23529412  0.11764706  0.05882353       0.010
   0.29411765  0.11764706  0.05882353       0.010
   0.35294118  0.11764706  0.05882353       0.010
   0.41176471  0.11764706  0.05882353       0.010
   0.47058824  0.11764706  0.05882353       0.010
   0.17647059  0.17647059  0.05882353       0.005
   0.23529412  0.17647059  0.05882353       0.010
   0.29411765  0.17647059  0.05882353       0.010
   0.35294118  0.17647059  0.05882353       0.010
   0.41176471  0.17647059  0.05882353       0.010
   0.47058824  0.17647059  0.05882353       0.010
   0.23529412  0.23529412  0.05882353       0.005
   0.29411765  0.23529412  0.05882353       0.010
   0.35294118  0.23529412  0.05882353       0.010
   0.41176471  0.23529412  0.05882353       0.010
   0.47058824  0.23529412  0.05882353       0.010
   0.29411765  0.29411765  0.05882353       0.005
   0.35294118  0.29411765  0.05882353       0.010
   0.41176471  0.29411765  0.05882353       0.010
   0.47058824  0.29411765  0.05882353       0.010
   0.35294118  0.35294118  0.05882353       0.005
   0.41176471  0.35294118  0.05882353       0.010
   0.47058824  0.35294118  0.05882353       0.010
   0.41176471  0.41176471  0.05882353       0.005
   0.47058824  0.41176471  0.05882353       0.010
   0.47058824  0.47058824  0.05882353       0.005
   0.11764706  0.11764706  0.11764706       0.002
   0.17647059  0.11764706  0.11764706       0.005
   0.23529412  0.11764706  0.11764706       0.005
   0.29411765  0.11764706  0.11764706       0.005
   0.35294118  0.11764706  0.11764706       0.005
   0.41176471  0.11764706  0.11764706       0.005
   0.47058824  0.11764706  0.11764706       0.005
   0.17647059  0.17647059  0.11764706       0.005
   0.23529412  0.17647059  0.11764706       0.010
   0.29411765  0.17647059  0.11764706       0.010
   0.35294118  0.17647059  0.11764706       0.010
   0.41176471  0.17647059  0.11764706       0.010
   0.47058824  0.17647059  0.11764706       0.010
   0.23529412  0.23529412  0.11764706       0.005
   0.29411765  0.23529412  0.11764706       0.010
   0.35294118  0.23529412  0.11764706       0.010
   0.41176471  0.23529412  0.11764706       0.010
   0.47058824  0.23529412  0.11764706       0.010
   0.29411765  0.29411765  0.11764706       0.005
   0.35294118  0.29411765  0.11764706       0.010
   0.41176471  0.29411765  0.11764706       0.010
   0.47058824  0.29411765  0.11764706       0.010
   0.35294118  0.35294118  0.11764706       0.005
   0.41176471  0.35294118  0.11764706       0.010
   0.47058824  0.35294118  0.11764706       0.010
   0.41176471  0.41176471  0.11764706       0.005
   0.47058824  0.41176471  0.11764706       0.010
   0.47058824  0.47058824  0.11764706       0.005
   0.17647059  0.17647059  0.17647059       0.002
   0.23529412  0.17647059  0.17647059       0.005
   0.29411765  0.17647059  0.17647059       0.005
   0.35294118  0.17647059  0.17647059       0.005
   0.41176471  0.17647059  0.17647059       0.005
   0.47058824  0.17647059  0.17647059       0.005
   0.23529412  0.23529412  0.17647059       0.005
   0.29411765  0.23529412  0.17647059       0.010
   0.35294118  0.23529412  0.17647059       0.010
   0.41176471  0.23529412  0.17647059       0.010
   0.47058824  0.23529412  0.17647059       0.010
   0.29411765  0.29411765  0.17647059       0.005
   0.35294118  0.29411765  0.17647059       0.010
   0.41176471  0.29411765  0.17647059       0.010
   0.47058824  0.29411765  0.17647059       0.010
   0.35294118  0.35294118  0.17647059       0.005
   0.41176471  0.35294118  0.17647059       0.010
   0.47058824  0.35294118  0.17647059       0.010
   0.41176471  0.41176471  0.17647059       0.005
   0.47058824  0.41176471  0.17647059       0.010
   0.47058824  0.47058824  0.17647059       0.005
   0.23529412  0.23529412  0.23529412       0.002
   0.29411765  0.23529412  0.23529412       0.005
   0.35294118  0.23529412  0.23529412       0.005
   0.41176471  0.23529412  0.23529412       0.005
   0.47058824  0.23529412  0.23529412       0.005
   0.29411765  0.29411765  0.23529412       0.005
   0.35294118  0.29411765  0.23529412       0.010
   0.41176471  0.29411765  0.23529412       0.010
   0.47058824  0.29411765  0.23529412       0.010
   0.35294118  0.35294118  0.23529412       0.005
   0.41176471  0.35294118  0.23529412       0.010
   0.47058824  0.35294118  0.23529412       0.010
   0.41176471  0.41176471  0.23529412       0.005
   0.47058824  0.41176471  0.23529412       0.010
   0.47058824  0.47058824  0.23529412       0.005
   0.29411765  0.29411765  0.29411765       0.002
   0.35294118  0.29411765  0.29411765       0.005
   0.41176471  0.29411765  0.29411765       0.005
   0.47058824  0.29411765  0.29411765       0.005
   0.35294118  0.35294118  0.29411765       0.005
   0.41176471  0.35294118  0.29411765       0.010
   0.47058824  0.35294118  0.29411765       0.010
   0.41176471  0.41176471  0.29411765       0.005
   0.47058824  0.41176471  0.29411765       0.010
   0.47058824  0.47058824  0.29411765       0.005
   0.35294118  0.35294118  0.35294118       0.002
   0.41176471  0.35294118  0.35294118       0.005
   0.47058824  0.35294118  0.35294118       0.005
   0.41176471  0.41176471  0.35294118       0.005
   0.47058824  0.41176471  0.35294118       0.010
   0.47058824  0.47058824  0.35294118       0.005
   0.41176471  0.41176471  0.41176471       0.002
   0.47058824  0.41176471  0.41176471       0.005
   0.47058824  0.47058824  0.41176471       0.005
   0.47058824  0.47058824  0.47058824       0.002
 
 k-points in reciprocal lattice and weights: KPOINTS file                            
   0.00000000  0.00000000  0.00000000       0.000
   0.05882353  0.00000000  0.00000000       0.001
   0.11764706  0.00000000  0.00000000       0.001
   0.17647059  0.00000000  0.00000000       0.001
   0.23529412  0.00000000  0.00000000       0.001
   0.29411765  0.00000000  0.00000000       0.001
   0.35294118  0.00000000  0.00000000       0.001
   0.41176471  0.00000000  0.00000000       0.001
   0.47058824  0.00000000  0.00000000       0.001
   0.05882353  0.05882353  0.00000000       0.002
   0.11764706  0.05882353  0.00000000       0.005
   0.17647059  0.05882353  0.00000000       0.005
   0.23529412  0.05882353  0.00000000       0.005
   0.29411765  0.05882353  0.00000000       0.005
   0.35294118  0.05882353  0.00000000       0.005
   0.41176471  0.05882353  0.00000000       0.005
   0.47058824  0.05882353  0.00000000       0.005
   0.11764706  0.11764706  0.00000000       0.002
   0.17647059  0.11764706  0.00000000       0.005
   0.23529412  0.11764706  0.00000000       0.005
   0.29411765  0.11764706  0.00000000       0.005
   0.35294118  0.11764706  0.00000000       0.005
   0.41176471  0.11764706  0.00000000       0.005
   0.47058824  0.11764706  0.00000000       0.005
   0.17647059  0.17647059  0.00000000       0.002
   0.23529412  0.17647059  0.00000000       0.005
   0.29411765  0.17647059  0.00000000       0.005
   0.35294118  0.17647059  0.00000000       0.005
   0.41176471  0.17647059  0.00000000       0.005
   0.47058824  0.17647059  0.00000000       0.005
   0.23529412  0.23529412  0.00000000       0.002
   0.29411765  0.23529412  0.00000000       0.005
   0.35294118  0.23529412  0.00000000       0.005
   0.41176471  0.23529412  0.00000000       0.005
   0.47058824  0.23529412  0.00000000       0.005
   0.29411765  0.29411765  0.00000000       0.002
   0.35294118  0.29411765  0.00000000       0.005
   0.41176471  0.29411765  0.00000000       0.005
   0.47058824  0.29411765  0.00000000       0.005
   0.35294118  0.35294118  0.00000000       0.002
   0.41176471  0.35294118  0.00000000       0.005
   0.47058824  0.35294118  0.00000000       0.005
   0.41176471  0.41176471  0.00000000       0.002
   0.47058824  0.41176471  0.00000000       0.005
   0.47058824  0.47058824  0.00000000       0.002
   0.05882353  0.05882353  0.05882353       0.002
   0.11764706  0.05882353  0.05882353       0.005
   0.17647059  0.05882353  0.05882353       0.005
   0.23529412  0.05882353  0.05882353       0.005
   0.29411765  0.05882353  0.05882353       0.005
   0.35294118  0.05882353  0.05882353       0.005
   0.41176471  0.05882353  0.05882353       0.005
   0.47058824  0.05882353  0.05882353       0.005
   0.11764706  0.11764706  0.05882353       0.005
   0.17647059  0.11764706  0.05882353       0.010
   0.23529412  0.11764706  0.05882353       0.010
   0.29411765  0.11764706  0.05882353       0.010
   0.35294118  0.11764706  0.05882353       0.010
   0.41176471  0.11764706  0.05882353       0.010
   0.47058824  0.11764706  0.05882353       0.010
   0.17647059  0.17647059  0.05882353       0.005
   0.23529412  0.17647059  0.05882353       0.010
   0.29411765  0.17647059  0.05882353       0.010
   0.35294118  0.17647059  0.05882353       0.010
   0.41176471  0.17647059  0.05882353       0.010
   0.47058824  0.17647059  0.05882353       0.010
   0.23529412  0.23529412  0.05882353       0.005
   0.29411765  0.23529412  0.05882353       0.010
   0.35294118  0.23529412  0.05882353       0.010
   0.41176471  0.23529412  0.05882353       0.010
   0.47058824  0.23529412  0.05882353       0.010
   0.29411765  0.29411765  0.05882353       0.005
   0.35294118  0.29411765  0.05882353       0.010
   0.41176471  0.29411765  0.05882353       0.010
   0.47058824  0.29411765  0.05882353       0.010
   0.35294118  0.35294118  0.05882353       0.005
   0.41176471  0.35294118  0.05882353       0.010
   0.47058824  0.35294118  0.05882353       0.010
   0.41176471  0.41176471  0.05882353       0.005
   0.47058824  0.41176471  0.05882353       0.010
   0.47058824  0.47058824  0.05882353       0.005
   0.11764706  0.11764706  0.11764706       0.002
   0.17647059  0.11764706  0.11764706       0.005
   0.23529412  0.11764706  0.11764706       0.005
   0.29411765  0.11764706  0.11764706       0.005
   0.35294118  0.11764706  0.11764706       0.005
   0.41176471  0.11764706  0.11764706       0.005
   0.47058824  0.11764706  0.11764706       0.005
   0.17647059  0.17647059  0.11764706       0.005
   0.23529412  0.17647059  0.11764706       0.010
   0.29411765  0.17647059  0.11764706       0.010
   0.35294118  0.17647059  0.11764706       0.010
   0.41176471  0.17647059  0.11764706       0.010
   0.47058824  0.17647059  0.11764706       0.010
   0.23529412  0.23529412  0.11764706       0.005
   0.29411765  0.23529412  0.11764706       0.010
   0.35294118  0.23529412  0.11764706       0.010
   0.41176471  0.23529412  0.11764706       0.010
   0.47058824  0.23529412  0.11764706       0.010
   0.29411765  0.29411765  0.11764706       0.005
   0.35294118  0.29411765  0.11764706       0.010
   0.41176471  0.29411765  0.11764706       0.010
   0.47058824  0.29411765  0.11764706       0.010
   0.35294118  0.35294118  0.11764706       0.005
   0.41176471  0.35294118  0.11764706       0.010
   0.47058824  0.35294118  0.11764706       0.010
   0.41176471  0.41176471  0.11764706       0.005
   0.47058824  0.41176471  0.11764706       0.010
   0.47058824  0.47058824  0.11764706       0.005
   0.17647059  0.17647059  0.17647059       0.002
   0.23529412  0.17647059  0.17647059       0.005
   0.29411765  0.17647059  0.17647059       0.005
   0.35294118  0.17647059  0.17647059       0.005
   0.41176471  0.17647059  0.17647059       0.005
   0.47058824  0.17647059  0.17647059       0.005
   0.23529412  0.23529412  0.17647059       0.005
   0.29411765  0.23529412  0.17647059       0.010
   0.35294118  0.23529412  0.17647059       0.010
   0.41176471  0.23529412  0.17647059       0.010
   0.47058824  0.23529412  0.17647059       0.010
   0.29411765  0.29411765  0.17647059       0.005
   0.35294118  0.29411765  0.17647059       0.010
   0.41176471  0.29411765  0.17647059       0.010
   0.47058824  0.29411765  0.17647059       0.010
   0.35294118  0.35294118  0.17647059       0.005
   0.41176471  0.35294118  0.17647059       0.010
   0.47058824  0.35294118  0.17647059       0.010
   0.41176471  0.41176471  0.17647059       0.005
   0.47058824  0.41176471  0.17647059       0.010
   0.47058824  0.47058824  0.17647059       0.005
   0.23529412  0.23529412  0.23529412       0.002
   0.29411765  0.23529412  0.23529412       0.005
   0.35294118  0.23529412  0.23529412       0.005
   0.41176471  0.23529412  0.23529412       0.005
   0.47058824  0.23529412  0.23529412       0.005
   0.29411765  0.29411765  0.23529412       0.005
   0.35294118  0.29411765  0.23529412       0.010
   0.41176471  0.29411765  0.23529412       0.010
   0.47058824  0.29411765  0.23529412       0.010
   0.35294118  0.35294118  0.23529412       0.005
   0.41176471  0.35294118  0.23529412       0.010
   0.47058824  0.35294118  0.23529412       0.010
   0.41176471  0.41176471  0.23529412       0.005
   0.47058824  0.41176471  0.23529412       0.010
   0.47058824  0.47058824  0.23529412       0.005
   0.29411765  0.29411765  0.29411765       0.002
   0.35294118  0.29411765  0.29411765       0.005
   0.41176471  0.29411765  0.29411765       0.005
   0.47058824  0.29411765  0.29411765       0.005
   0.35294118  0.35294118  0.29411765       0.005
   0.41176471  0.35294118  0.29411765       0.010
   0.47058824  0.35294118  0.29411765       0.010
   0.41176471  0.41176471  0.29411765       0.005
   0.47058824  0.41176471  0.29411765       0.010
   0.47058824  0.47058824  0.29411765       0.005
   0.35294118  0.35294118  0.35294118       0.002
   0.41176471  0.35294118  0.35294118       0.005
   0.47058824  0.35294118  0.35294118       0.005
   0.41176471  0.41176471  0.35294118       0.005
   0.47058824  0.41176471  0.35294118       0.010
   0.47058824  0.47058824  0.35294118       0.005
   0.41176471  0.41176471  0.41176471       0.002
   0.47058824  0.41176471  0.41176471       0.005
   0.47058824  0.47058824  0.41176471       0.005
   0.47058824  0.47058824  0.47058824       0.002
 
 position of ions in fractional coordinates (direct lattice) 
   0.00000000  0.00000000  0.00000000
   0.50000000  0.50000000  0.00000000
   0.50000000  0.00000000  0.50000000
   0.00000000  0.50000000  0.50000000
 
 position of ions in cartesian coordinates  (Angst):
   0.00000000  0.00000000  0.00000000
   2.02500000  2.02500000  0.00000000
   2.02500000  0.00000000  2.02500000
   0.00000000  2.02500000  2.02500000
 


--------------------------------------------------------------------------------------------------------


 k-point  1 :   0.0000 0.0000 0.0000  plane waves:    1743
 k-point  2 :   0.0588 0.0000 0.0000  plane waves:    1723
 k-point  3 :   0.1176 0.0000 0.0000  plane waves:    1711
 k-point  4 :   0.1765 0.0000 0.0000  plane waves:    1699
 k-point  5 :   0.2353 0.0000 0.0000  plane waves:    1691
 k-point  6 :   0.2941 0.0000 0.0000  plane waves:    1695
 k-point  7 :   0.3529 0.0000 0.0000  plane waves:    1691
 k-point  8 :   0.4118 0.0000 0.0000  plane waves:    1698
 k-point  9 :   0.4706 0.0000 0.0000  plane waves:    1686
 k-point 10 :   0.0588 0.0588 0.0000  plane waves:    1715
 k-point 11 :   0.1176 0.0588 0.0000  plane waves:    1706
 k-point 12 :   0.1765 0.0588 0.0000  plane waves:    1701
 k-point 13 :   0.2353 0.0588 0.0000  plane waves:    1703
 k-point 14 :   0.2941 0.0588 0.0000  plane waves:    1703
 k-point 15 :   0.3529 0.0588 0.0000  plane waves:    1693
 k-point 16 :   0.4118 0.0588 0.0000  plane waves:    1692
 k-point 17 :   0.4706 0.0588 0.0000  plane waves:    1682
 k-point 18 :   0.1176 0.1176 0.0000  plane waves:    1697
 k-point 19 :   0.1765 0.1176 0.0000  plane waves:    1704
 k-point 20 :   0.2353 0.1176 0.0000  plane waves:    1699
 k-point 21 :   0.2941 0.1176 0.0000  plane waves:    1700
 k-point 22 :   0.3529 0.1176 0.0000  plane waves:    1693
 k-point 23 :   0.4118 0.1176 0.0000  plane waves:    1686
 k-point 24 :   0.4706 0.1176 0.0000  plane waves:    1682
 k-point 25 :   0.1765 0.1765 0.0000  plane waves:    1697
 k-point 26 :   0.2353 0.1765 0.0000  plane waves:    1693
 k-point 27 :   0.2941 0.1765 0.0000  plane waves:    1698
 k-point 28 :   0.3529 0.1765 0.0000  plane waves:    1687
 k-point 29 :   0.4118 0.1765 0.0000  plane waves:    1689
 k-point 30 :   0.4706 0.1765 0.0000  plane waves:    1684
 k-point 31 :   0.2353 0.2353 0.0000  plane waves:    1696
 k-point 32 :   0.2941 0.2353 0.0000  plane waves:    1689
 k-point 33 :   0.3529 0.2353 0.0000  plane waves:    1677
 k-point 34 :   0.4118 0.2353 0.0000  plane waves:    1677
 k-point 35 :   0.4706 0.2353 0.0000  plane waves:    1685
 k-point 36 :   0.2941 0.2941 0.0000  plane waves:    1686
 k-point 37 :   0.3529 0.2941 0.0000  plane waves:    1669
 k-point 38 :   0.4118 0.2941 0.0000  plane waves:    1676
 k-point 39 :   0.4706 0.2941 0.0000  plane waves:    1680
 k-point 40 :   0.3529 0.3529 0.0000  plane waves:    1674
 k-point 41 :   0.4118 0.3529 0.0000  plane waves:    1678
 k-point 42 :   0.4706 0.3529 0.0000  plane waves:    1678
 k-point 43 :   0.4118 0.4118 0.0000  plane waves:    1676
 k-point 44 :   0.4706 0.4118 0.0000  plane waves:    1674
 k-point 45 :   0.4706 0.4706 0.0000  plane waves:    1672
 k-point 46 :   0.0588 0.0588 0.0588  plane waves:    1710
 k-point 47 :   0.1176 0.0588 0.0588  plane waves:    1707
 k-point 48 :   0.1765 0.0588 0.0588  plane waves:    1696
 k-point 49 :   0.2353 0.0588 0.0588  plane waves:    1702
 k-point 50 :   0.2941 0.0588 0.0588  plane waves:    1695
 k-point 51 :   0.3529 0.0588 0.0588  plane waves:    1701
 k-point 52 :   0.4118 0.0588 0.0588  plane waves:    1694
 k-point 53 :   0.4706 0.0588 0.0588  plane waves:    1686
 k-point 54 :   0.1176 0.1176 0.0588  plane waves:    1699
 k-point 55 :   0.1765 0.1176 0.0588  plane waves:    1698
 k-point 56 :   0.2353 0.1176 0.0588  plane waves:    1703
 k-point 57 :   0.2941 0.1176 0.0588  plane waves:    1698
 k-point 58 :   0.3529 0.1176 0.0588  plane waves:    1699
 k-point 59 :   0.4118 0.1176 0.0588  plane waves:    1690
 k-point 60 :   0.4706 0.1176 0.0588  plane waves:    1684
 k-point 61 :   0.1765 0.1765 0.0588  plane waves:    1691
 k-point 62 :   0.2353 0.1765 0.0588  plane waves:    1696
 k-point 63 :   0.2941 0.1765 0.0588  plane waves:    1692
 k-point 64 :   0.3529 0.1765 0.0588  plane waves:    1689
 k-point 65 :   0.4118 0.1765 0.0588  plane waves:    1683
 k-point 66 :   0.4706 0.1765 0.0588  plane waves:    1683
 k-point 67 :   0.2353 0.2353 0.0588  plane waves:    1688
 k-point 68 :   0.2941 0.2353 0.0588  plane waves:    1688
 k-point 69 :   0.3529 0.2353 0.0588  plane waves:    1674
 k-point 70 :   0.4118 0.2353 0.0588  plane waves:    1675
 k-point 71 :   0.4706 0.2353 0.0588  plane waves:    1681
 k-point 72 :   0.2941 0.2941 0.0588  plane waves:    1687
 k-point 73 :   0.3529 0.2941 0.0588  plane waves:    1677
 k-point 74 :   0.4118 0.2941 0.0588  plane waves:    1680
 k-point 75 :   0.4706 0.2941 0.0588  plane waves:    1681
 k-point 76 :   0.3529 0.3529 0.0588  plane waves:    1675
 k-point 77 :   0.4118 0.3529 0.0588  plane waves:    1677
 k-point 78 :   0.4706 0.3529 0.0588  plane waves:    1679
 k-point 79 :   0.4118 0.4118 0.0588  plane waves:    1678
 k-point 80 :   0.4706 0.4118 0.0588  plane waves:    1679
 k-point 81 :   0.4706 0.4706 0.0588  plane waves:    1674
 k-point 82 :   0.1176 0.1176 0.1176  plane waves:    1704
 k-point 83 :   0.1765 0.1176 0.1176  plane waves:    1695
 k-point 84 :   0.2353 0.1176 0.1176  plane waves:    1686
 k-point 85 :   0.2941 0.1176 0.1176  plane waves:    1692
 k-point 86 :   0.3529 0.1176 0.1176  plane waves:    1690
 k-point 87 :   0.4118 0.1176 0.1176  plane waves:    1690
 k-point 88 :   0.4706 0.1176 0.1176  plane waves:    1686
 k-point 89 :   0.1765 0.1765 0.1176  plane waves:    1690
 k-point 90 :   0.2353 0.1765 0.1176  plane waves:    1694
 k-point 91 :   0.2941 0.1765 0.1176  plane waves:    1688
 k-point 92 :   0.3529 0.1765 0.1176  plane waves:    1684
 k-point 93 :   0.4118 0.1765 0.1176  plane waves:    1685
 k-point 94 :   0.4706 0.1765 0.1176  plane waves:    1690
 k-point 95 :   0.2353 0.2353 0.1176  plane waves:    1687
 k-point 96 :   0.2941 0.2353 0.1176  plane waves:    1688
 k-point 97 :   0.3529 0.2353 0.1176  plane waves:    1686
 k-point 98 :   0.4118 0.2353 0.1176  plane waves:    1682
 k-point 99 :   0.4706 0.2353 0.1176  plane waves:    1685
 k-point ** :   0.2941 0.2941 0.1176  plane waves:    1673
 k-point ** :   0.3529 0.2941 0.1176  plane waves:    1679
 k-point ** :   0.4118 0.2941 0.1176  plane waves:    1676
 k-point ** :   0.4706 0.2941 0.1176  plane waves:    1686
 k-point ** :   0.3529 0.3529 0.1176  plane waves:    1682
 k-point ** :   0.4118 0.3529 0.1176  plane waves:    1685
 k-point ** :   0.4706 0.3529 0.1176  plane waves:    1679
 k-point ** :   0.4118 0.4118 0.1176  plane waves:    1681
 k-point ** :   0.4706 0.4118 0.1176  plane waves:    1684
 k-point ** :   0.4706 0.4706 0.1176  plane waves:    1678
 k-point ** :   0.1765 0.1765 0.1765  plane waves:    1686
 k-point ** :   0.2353 0.1765 0.1765  plane waves:    1690
 k-point ** :   0.2941 0.1765 0.1765  plane waves:    1684
 k-point ** :   0.3529 0.1765 0.1765  plane waves:    1684
 k-point ** :   0.4118 0.1765 0.1765  plane waves:    1683
 k-point ** :   0.4706 0.1765 0.1765  plane waves:    1686
 k-point ** :   0.2353 0.2353 0.1765  plane waves:    1690
 k-point ** :   0.2941 0.2353 0.1765  plane waves:    1686
 k-point ** :   0.3529 0.2353 0.1765  plane waves:    1684
 k-point ** :   0.4118 0.2353 0.1765  plane waves:    1687
 k-point ** :   0.4706 0.2353 0.1765  plane waves:    1695
 k-point ** :   0.2941 0.2941 0.1765  plane waves:    1684
 k-point ** :   0.3529 0.2941 0.1765  plane waves:    1677
 k-point ** :   0.4118 0.2941 0.1765  plane waves:    1686
 k-point ** :   0.4706 0.2941 0.1765  plane waves:    1690
 k-point ** :   0.3529 0.3529 0.1765  plane waves:    1683
 k-point ** :   0.4118 0.3529 0.1765  plane waves:    1683
 k-point ** :   0.4706 0.3529 0.1765  plane waves:    1692
 k-point ** :   0.4118 0.4118 0.1765  plane waves:    1683
 k-point ** :   0.4706 0.4118 0.1765  plane waves:    1681
 k-point ** :   0.4706 0.4706 0.1765  plane waves:    1684
 k-point ** :   0.2353 0.2353 0.2353  plane waves:    1689
 k-point ** :   0.2941 0.2353 0.2353  plane waves:    1682
 k-point ** :   0.3529 0.2353 0.2353  plane waves:    1683
 k-point ** :   0.4118 0.2353 0.2353  plane waves:    1692
 k-point ** :   0.4706 0.2353 0.2353  plane waves:    1688
 k-point ** :   0.2941 0.2941 0.2353  plane waves:    1683
 k-point ** :   0.3529 0.2941 0.2353  plane waves:    1685
 k-point ** :   0.4118 0.2941 0.2353  plane waves:    1688
 k-point ** :   0.4706 0.2941 0.2353  plane waves:    1687
 k-point ** :   0.3529 0.3529 0.2353  plane waves:    1675
 k-point ** :   0.4118 0.3529 0.2353  plane waves:    1685
 k-point ** :   0.4706 0.3529 0.2353  plane waves:    1689
 k-point ** :   0.4118 0.4118 0.2353  plane waves:    1687
 k-point ** :   0.4706 0.4118 0.2353  plane waves:    1684
 k-point ** :   0.4706 0.4706 0.2353  plane waves:    1685
 k-point ** :   0.2941 0.2941 0.2941  plane waves:    1688
 k-point ** :   0.3529 0.2941 0.2941  plane waves:    1684
 k-point ** :   0.4118 0.2941 0.2941  plane waves:    1686
 k-point ** :   0.4706 0.2941 0.2941  plane waves:    1692
 k-point ** :   0.3529 0.3529 0.2941  plane waves:    1692
 k-point ** :   0.4118 0.3529 0.2941  plane waves:    1693
 k-point ** :   0.4706 0.3529 0.2941  plane waves:    1691
 k-point ** :   0.4118 0.4118 0.2941  plane waves:    1693
 k-point ** :   0.4706 0.4118 0.2941  plane waves:    1681
 k-point ** :   0.4706 0.4706 0.2941  plane waves:    1685
 k-point ** :   0.3529 0.3529 0.3529  plane waves:    1694
 k-point ** :   0.4118 0.3529 0.3529  plane waves:    1684
 k-point ** :   0.4706 0.3529 0.3529  plane waves:    1690
 k-point ** :   0.4118 0.4118 0.3529  plane waves:    1682
 k-point ** :   0.4706 0.4118 0.3529  plane waves:    1682
 k-point ** :   0.4706 0.4706 0.3529  plane waves:    1679
 k-point ** :   0.4118 0.4118 0.4118  plane waves:    1679
 k-point ** :   0.4706 0.4118 0.4118  plane waves:    1681
 k-point ** :   0.4706 0.4706 0.4118  plane waves:    1678
 k-point ** :   0.4706 0.4706 0.4706  plane waves:    1670

 maximum and minimum number of plane-waves per node :       306      264

 maximum number of plane-waves:      1743
 maximum index in each direction: 
   IXMAX=    7   IYMAX=    7   IZMAX=    7
   IXMIN=   -7   IYMIN=   -7   IZMIN=   -7

 NGX is ok and might be reduce to  30
 NGY is ok and might be reduce to  30
 NGZ is ok and might be reduce to  30

 parallel 3D FFT for wavefunctions:
    minimum data exchange during FFTs selected (reduces bandwidth)
 parallel 3D FFT for charge:
    minimum data exchange during FFTs selected (reduces bandwidth)


 total amount of memory used by VASP on root node    38983. kBytes
========================================================================

   base      :      30000. kBytes
   nonl-proj :       3144. kBytes
   fftplans  :        759. kBytes
   grid      :       1065. kBytes
   one-center:          3. kBytes
   wavefun   :       4012. kBytes
 
     INWAV:  cpu time    0.0010: real time    0.0001
 Broyden mixing: mesh for mixing (old mesh)
   NGX = 15   NGY = 15   NGZ = 15
  (NGX  = 60   NGY  = 60   NGZ  = 60)
  gives a total of   3375 points

 initial charge density was supplied:
 charge density of overlapping atoms calculated
 number of electron      12.0000000 magnetization 
 keeping initial charge density in first step


--------------------------------------------------------------------------------------------------------


 Maximum index for augmentation-charges         1335 (set IRDMAX)


--------------------------------------------------------------------------------------------------------


 First call to EWALD:  gamma=   0.438
 Maximum number of real-space cells 3x 3x 3
 Maximum number of reciprocal cells 3x 3x 3

 FEWALD executed in parallel
    FEWALD:  cpu time    0.0020: real time    0.0018


----------------------------------------- Iteration    1(   1)  ---------------------------------------


    POTLOK:  cpu time    0.0210: real time    0.0231
    SETDIJ:  cpu time    0.0030: real time    0.0030
     EDDAV:  cpu time    0.8639: real time    0.8667
       DOS:  cpu time    0.0070: real time    0.0060
    --------------------------------------------
      LOOP:  cpu time    0.8989: real time    0.9170

 eigenvalue-minimisations  :  3300
 total energy-change (2. order) : 0.9022850E+01  (-0.4200616E+03)
 number of electron      12.0000000 magnetization 
 augmentation part       12.0000000 magnetization 

 Free energy of the ion-electron system (eV)
  ---------------------------------------------------
  alpha Z        PSCENC =        -0.80898476
  Ewald energy   TEWEN  =      -293.42683892
  -Hartree energ DENC   =        -0.41547172
  -exchange      EXHF   =         0.00000000
  -V(xc)+E(xc)   XCENC  =      -105.00570319
  PAW double counting   =       264.80062850     -136.98248303
  entropy T*S    EENTRO =        -0.00023864
  eigenvalues    EBANDS =        66.70830001
  atomic energy  EATOM  =       214.15364153
  Solvation  Ediel_sol  =         0.00000000
  ---------------------------------------------------
  free energy    TOTEN  =         9.02284979 eV

  energy without entropy =        9.02308843  energy(sigma->0) =        9.02290945


--------------------------------------------------------------------------------------------------------




----------------------------------------- Iteration    1(   2)  ---------------------------------------


     EDDAV:  cpu time    1.0388: real time    1.0404
       DOS:  cpu time    0.0060: real time    0.0061
    --------------------------------------------
      LOOP:  cpu time    1.0458: real time    1.0539

 eigenvalue-minimisations  :  4212
 total energy-change (2. order) :-0.2331765E+02  (-0.2199533E+02)
 number of electron      12.0000000 magnetization 
 augmentation part       12.0000000 magnetization 

 Free energy of the ion-electron system (eV)
  ---------------------------------------------------
  alpha Z        PSCENC =        -0.80898476
  Ewald energy   TEWEN  =      -293.42683892
  -Hartree energ DENC   =        -0.41547172
  -exchange      EXHF   =         0.00000000
  -V(xc)+E(xc)   XCENC  =      -105.00570319
  PAW double counting   =       264.80062850     -136.98248303
  entropy T*S    EENTRO =        -0.00167741
  eigenvalues    EBANDS =        43.39209247
  atomic energy  EATOM  =       214.15364153
  Solvation  Ediel_sol  =         0.00000000
  ---------------------------------------------------
  free energy    TOTEN  =       -14.29479653 eV

  energy without entropy =      -14.29311911  energy(sigma->0) =      -14.29437717


--------------------------------------------------------------------------------------------------------




----------------------------------------- Iteration    1(   3)  ---------------------------------------


     EDDAV:  cpu time    1.0808: real time    1.0832
       DOS:  cpu time    0.0060: real time    0.0060
    --------------------------------------------
      LOOP:  cpu time    1.0898: real time    1.0961

 eigenvalue-minimisations  :  4378
 total energy-change (2. order) :-0.7685241E+00  (-0.7404915E+00)
 number of electron      12.0000000 magnetization 
 augmentation part       12.0000000 magnetization 

 Free energy of the ion-electron system (eV)
  ---------------------------------------------------
  alpha Z        PSCENC =        -0.80898476
  Ewald energy   TEWEN  =      -293.42683892
  -Hartree energ DENC   =        -0.41547172
  -exchange      EXHF   =         0.00000000
  -V(xc)+E(xc)   XCENC  =      -105.00570319
  PAW double counting   =       264.80062850     -136.98248303
  entropy T*S    EENTRO =        -0.00139355
  eigenvalues    EBANDS =        42.62328448
  atomic energy  EATOM  =       214.15364153
  Solvation  Ediel_sol  =         0.00000000
  ---------------------------------------------------
  free energy    TOTEN  =       -15.06332064 eV

  energy without entropy =      -15.06192710  energy(sigma->0) =      -15.06297226


--------------------------------------------------------------------------------------------------------




----------------------------------------- Iteration    1(   4)  ---------------------------------------


     EDDAV:  cpu time    1.0058: real time    1.0077
       DOS:  cpu time    0.0060: real time    0.0060
    --------------------------------------------
      LOOP:  cpu time    1.0148: real time    1.0241

 eigenvalue-minimisations  :  4072
 total energy-change (2. order) :-0.6476196E-02  (-0.6454849E-02)
 number of electron      12.0000000 magnetization 
 augmentation part       12.0000000 magnetization 

 Free energy of the ion-electron system (eV)
  ---------------------------------------------------
  alpha Z        PSCENC =        -0.80898476
  Ewald energy   TEWEN  =      -293.42683892
  -Hartree energ DENC   =        -0.41547172
  -exchange      EXHF   =         0.00000000
  -V(xc)+E(xc)   XCENC  =      -105.00570319
  PAW double counting   =       264.80062850     -136.98248303
  entropy T*S    EENTRO =        -0.00131013
  eigenvalues    EBANDS =        42.61672488
  atomic energy  EATOM  =       214.15364153
  Solvation  Ediel_sol  =         0.00000000
  ---------------------------------------------------
  free energy    TOTEN  =       -15.06979684 eV

  energy without entropy =      -15.06848670  energy(sigma->0) =      -15.06946931


--------------------------------------------------------------------------------------------------------




----------------------------------------- Iteration    1(   5)  ---------------------------------------


     EDDAV:  cpu time    0.9988: real time    1.0103
       DOS:  cpu time    0.0060: real time    0.0060
    CHARGE:  cpu time    0.0680: real time    0.0680
    MIXING:  cpu time    0.0010: real time    0.0009
    --------------------------------------------
      LOOP:  cpu time    1.0748: real time    1.0939

 eigenvalue-minimisations  :  4028
 total energy-change (2. order) :-0.4751824E-04  (-0.4751620E-04)
 number of electron      12.0000000 magnetization 
 augmentation part       -0.1486142 magnetization 

 Broyden mixing:
  rms(total) = 0.25885E+00    rms(broyden)= 0.25885E+00
  rms(prec ) = 0.46941E+00
  weight for this iteration     100.00

 Free energy of the ion-electron system (eV)
  ---------------------------------------------------
  alpha Z        PSCENC =        -0.80898476
  Ewald energy   TEWEN  =      -293.42683892
  -Hartree energ DENC   =        -0.41547172
  -exchange      EXHF   =         0.00000000
  -V(xc)+E(xc)   XCENC  =      -105.00570319
  PAW double counting   =       264.80062850     -136.98248303
  entropy T*S    EENTRO =        -0.00130936
  eigenvalues    EBANDS =        42.61667658
  atomic energy  EATOM  =       214.15364153
  Solvation  Ediel_sol  =         0.00000000
  ---------------------------------------------------
  free energy    TOTEN  =       -15.06984436 eV

  energy without entropy =      -15.06853500  energy(sigma->0) =      -15.06951702


--------------------------------------------------------------------------------------------------------




----------------------------------------- Iteration    1(   6)  ---------------------------------------


    POTLOK:  cpu time    0.0140: real time    0.0142
    SETDIJ:  cpu time    0.0020: real time    0.0025
     EDDAV:  cpu time    0.9509: real time    0.9508
       DOS:  cpu time    0.0060: real time    0.0061
    CHARGE:  cpu time    0.0670: real time    0.0671
    MIXING:  cpu time    0.0010: real time    0.0007
    --------------------------------------------
      LOOP:  cpu time    1.0418: real time    1.0486

 eigenvalue-minimisations  :  3720
 total energy-change (2. order) : 0.5199644E-01  (-0.6468353E-03)
 number of electron      12.0000000 magnetization 
 augmentation part       -0.1507595 magnetization 

 Broyden mixing:
  rms(total) = 0.15073E+00    rms(broyden)= 0.15073E+00
  rms(prec ) = 0.28762E+00
  weight for this iteration     100.00

 eigenvalues of (default mixing * dielectric matrix)
  average eigenvalue GAMMA=   2.3395
  2.3395

 Free energy of the ion-electron system (eV)
  ---------------------------------------------------
  alpha Z        PSCENC =        -0.80898476
  Ewald energy   TEWEN  =      -293.42683892
  -Hartree energ DENC   =        -0.34515133
  -exchange      EXHF   =         0.00000000
  -V(xc)+E(xc)   XCENC  =      -104.86669283
  PAW double counting   =       377.43623163     -249.62859520
  entropy T*S    EENTRO =        -0.00140586
  eigenvalues    EBANDS =        42.46994781
  atomic energy  EATOM  =       214.15364153
  Solvation  Ediel_sol  =         0.00000000
  ---------------------------------------------------
  free energy    TOTEN  =       -15.01784792 eV

  energy without entropy =      -15.01644206  energy(sigma->0) =      -15.01749646


--------------------------------------------------------------------------------------------------------




----------------------------------------- Iteration    1(   7)  ---------------------------------------


    POTLOK:  cpu time    0.0140: real time    0.0142
    SETDIJ:  cpu time    0.0030: real time    0.0026
     EDDAV:  cpu time    0.9009: real time    0.9025
       DOS:  cpu time    0.0060: real time    0.0061
    CHARGE:  cpu time    0.0670: real time    0.0670
    MIXING:  cpu time    0.0010: real time    0.0006
    --------------------------------------------
      LOOP:  cpu time    0.9928: real time    1.0001

 eigenvalue-minimisations  :  3522
 total energy-change (2. order) : 0.3786821E-01  (-0.1847095E-02)
 number of electron      12.0000000 magnetization 
 augmentation part       -0.1547852 magnetization 

 Broyden mixing:
  rms(total) = 0.25787E-01    rms(broyden)= 0.25787E-01
  rms(prec ) = 0.28035E-01
  weight for this iteration     100.00

 eigenvalues of (default mixing * dielectric matrix)
  average eigenvalue GAMMA=   2.7716
  2.7716  2.7716

 Free energy of the ion-electron system (eV)
  ---------------------------------------------------
  alpha Z        PSCENC =        -0.80898476
  Ewald energy   TEWEN  =      -293.42683892
  -Hartree energ DENC   =        -0.40000298
  -exchange      EXHF   =         0.00000000
  -V(xc)+E(xc)   XCENC  =      -104.59421200
  PAW double counting   =       601.06211410     -473.27786023
  entropy T*S    EENTRO =        -0.00156741
  eigenvalues    EBANDS =        42.31373096
  atomic energy  EATOM  =       214.15364153
  Solvation  Ediel_sol  =         0.00000000
  ---------------------------------------------------
  free energy    TOTEN  =       -14.97997971 eV

  energy without entropy =      -14.97841230  energy(sigma->0) =      -14.97958786


--------------------------------------------------------------------------------------------------------




----------------------------------------- Iteration    1(   8)  ---------------------------------------


    POTLOK:  cpu time    0.0140: real time    0.0143
    SETDIJ:  cpu time    0.0030: real time    0.0025
     EDDAV:  cpu time    1.0308: real time    1.0336
       DOS:  cpu time    0.0060: real time    0.0060
    CHARGE:  cpu time    0.0670: real time    0.0670
    MIXING:  cpu time    0.0010: real time    0.0006
    --------------------------------------------
      LOOP:  cpu time    1.1238: real time    1.1320

 eigenvalue-minimisations  :  4194
 total energy-change (2. order) : 0.1024739E-03  (-0.1473086E-04)
 number of electron      12.0000000 magnetization 
 augmentation part       -0.1551636 magnetization 

 Broyden mixing:
  rms(total) = 0.18314E-02    rms(broyden)= 0.18314E-02
  rms(prec ) = 0.36073E-02
  weight for this iteration     100.00

 eigenvalues of (default mixing * dielectric matrix)
  average eigenvalue GAMMA=   2.1364
  1.0300  2.6438  2.7355

 Free energy of the ion-electron system (eV)
  ---------------------------------------------------
  alpha Z        PSCENC =        -0.80898476
  Ewald energy   TEWEN  =      -293.42683892
  -Hartree energ DENC   =        -0.41375757
  -exchange      EXHF   =         0.00000000
  -V(xc)+E(xc)   XCENC  =      -104.57623548
  PAW double counting   =       554.26534033     -426.49281523
  entropy T*S    EENTRO =        -0.00157355
  eigenvalues    EBANDS =        42.32134642
  atomic energy  EATOM  =       214.15364153
  Solvation  Ediel_sol  =         0.00000000
  ---------------------------------------------------
  free energy    TOTEN  =       -14.97987723 eV

  energy without entropy =      -14.97830368  energy(sigma->0) =      -14.97948385


--------------------------------------------------------------------------------------------------------




----------------------------------------- Iteration    1(   9)  ---------------------------------------


    POTLOK:  cpu time    0.0140: real time    0.0141
    SETDIJ:  cpu time    0.0020: real time    0.0025
     EDDAV:  cpu time    0.9789: real time    0.9795
       DOS:  cpu time    0.0060: real time    0.0058
    CHARGE:  cpu time    0.0670: real time    0.0670
    MIXING:  cpu time    0.0000: real time    0.0006
    --------------------------------------------
      LOOP:  cpu time    1.0698: real time    1.0783

 eigenvalue-minimisations  :  3868
 total energy-change (2. order) : 0.7317411E-05  (-0.5335270E-06)
 number of electron      12.0000000 magnetization 
 augmentation part       -0.1552481 magnetization 

 Broyden mixing:
  rms(total) = 0.32116E-03    rms(broyden)= 0.32116E-03
  rms(prec ) = 0.36542E-03
  weight for this iteration     100.00

 eigenvalues of (default mixing * dielectric matrix)
  average eigenvalue GAMMA=   2.2348
  0.9667  3.0386  2.4669  2.4669

 Free energy of the ion-electron system (eV)
  ---------------------------------------------------
  alpha Z        PSCENC =        -0.80898476
  Ewald energy   TEWEN  =      -293.42683892
  -Hartree energ DENC   =        -0.41595851
  -exchange      EXHF   =         0.00000000
  -V(xc)+E(xc)   XCENC  =      -104.57218398
  PAW double counting   =       556.37085272     -428.59832182
  entropy T*S    EENTRO =        -0.00157575
  eigenvalues    EBANDS =        42.31949956
  atomic energy  EATOM  =       214.15364153
  Solvation  Ediel_sol  =         0.00000000
  ---------------------------------------------------
  free energy    TOTEN  =       -14.97986992 eV

  energy without entropy =      -14.97829417  energy(sigma->0) =      -14.97947598


--------------------------------------------------------------------------------------------------------




----------------------------------------- Iteration    1(  10)  ---------------------------------------


    POTLOK:  cpu time    0.0120: real time    0.0143
    SETDIJ:  cpu time    0.0030: real time    0.0025
     EDDAV:  cpu time    1.0898: real time    1.0911
       DOS:  cpu time    0.0060: real time    0.0061
    CHARGE:  cpu time    0.0670: real time    0.0670
    MIXING:  cpu time    0.0010: real time    0.0006
[...]
      4       3.9035      2.00000
      5       5.4502      2.00000
      6       6.4440      2.00000
      7       7.4408      1.99954
      8       9.9231      0.00000
      9      12.0959      0.00000
     10      13.0442      0.00000

 k-point   138 :       0.4118    0.2941    0.2353
  band No.  band energies     occupation 
      1      -0.3282      2.00000
      2       1.2331      2.00000
      3       3.2837      2.00000
      4       4.2722      2.00000
      5       4.8478      2.00000
      6       5.8268      2.00000
      7       7.8231      2.08560
      8       9.3140      0.00000
      9      12.4614      0.00000
     10      13.3500      0.00000

 k-point   139 :       0.4706    0.2941    0.2353
  band No.  band energies     occupation 
      1       0.1330      2.00000
      2       0.6537      2.00000
      3       3.7298      2.00000
      4       4.2176      2.00000
      5       4.7836      2.00000
      6       5.2683      2.00000
      7       8.2631     -0.09743
      8       8.7603      0.00003
      9      12.8715      0.00000
     10      13.2883      0.00000

 k-point   140 :       0.3529    0.3529    0.2353
  band No.  band energies     occupation 
      1      -0.3897      2.00000
      2       2.2031      2.00000
      3       2.2031      2.00000
      4       4.2131      2.00000
      5       4.7894      2.00000
      6       6.7685      2.00000
      7       6.7685      2.00000
      8       9.2579      0.00000
      9      12.4129      0.00000
     10      14.2714      0.00000

 k-point   141 :       0.4118    0.3529    0.2353
  band No.  band energies     occupation 
      1       0.0102      2.00000
      2       1.5677      2.00000
      3       2.5954      2.00000
      4       4.1013      2.00000
      5       4.6640      2.00000
      6       6.1512      2.00000
      7       7.1516      2.00000
      8       8.6468      0.00067
      9      12.7819      0.00000
     10      14.1348      0.00000

 k-point   142 :       0.4706    0.3529    0.2353
  band No.  band energies     occupation 
      1       0.4703      2.00000
      2       0.9897      2.00000
      3       3.0462      2.00000
      4       3.5530      2.00000
      5       5.0903      2.00000
      6       5.5909      2.00000
      7       7.5928      1.99291
      8       8.0914      0.59119
      9      13.2006      0.00000
     10      13.6623      0.00000

 k-point   143 :       0.4118    0.4118    0.2353
  band No.  band energies     occupation 
      1       0.4091      2.00000
      2       1.9621      2.00000
      3       1.9621      2.00000
      4       3.4939      2.00000
      5       5.0309      2.00000
      6       6.5349      2.00000
      7       6.5349      2.00000
      8       8.0340      1.18480
      9      13.1527      0.00000
     10      14.5480      0.00000

 k-point   144 :       0.4706    0.4118    0.2353
  band No.  band energies     occupation 
      1       0.8679      2.00000
      2       1.3858      2.00000
      3       2.4156      2.00000
      4       2.9270      2.00000
      5       5.4726      2.00000
      6       5.9747      2.00000
      7       6.9771      2.00000
      8       7.4771      1.99895
      9      13.5736      0.00000
     10      14.0416      0.00000

 k-point   145 :       0.4706    0.4706    0.2353
  band No.  band energies     occupation 
      1       1.3251      2.00000
      2       1.8414      2.00000
      3       1.8414      2.00000
      4       2.3556      2.00000
      5       5.9158      2.00000
      6       6.4177      2.00000
      7       6.4177      2.00000
      8       6.9188      2.00000
      9      13.9953      0.00000
     10      14.4640      0.00000

 k-point   146 :       0.2941    0.2941    0.2941
  band No.  band energies     occupation 
      1      -0.7908      2.00000
      2       2.8339      2.00000
      3       2.8339      2.00000
      4       2.8339      2.00000
      5       6.3885      2.00000
      6       6.3885      2.00000
      7       6.3885      2.00000
      8       9.8692      0.00000
      9      13.0056      0.00000
     10      13.0056      0.00000

 k-point   147 :       0.3529    0.2941    0.2941
  band No.  band energies     occupation 
      1      -0.4514      2.00000
      2       2.1426      2.00000
      3       3.1638      2.00000
      4       3.1638      2.00000
      5       5.7133      2.00000
      6       5.7133      2.00000
      7       6.7132      2.00000
      8       9.2037      0.00000
      9      13.3147      0.00000
     10      13.3147      0.00000

 k-point   148 :       0.4118    0.2941    0.2941
  band No.  band energies     occupation 
      1      -0.0512      2.00000
      2       1.5070      2.00000
      3       3.5507      2.00000
      4       3.5507      2.00000
      5       5.0954      2.00000
      6       5.0954      2.00000
      7       7.0965      2.00000
      8       8.5924      0.00207
      9      13.6683      0.00000
     10      13.6683      0.00000

 k-point   149 :       0.4706    0.2941    0.2941
  band No.  band energies     occupation 
      1       0.4090      2.00000
      2       0.9287      2.00000
      3       3.9813      2.00000
      4       3.9813      2.00000
      5       4.5490      2.00000
      6       4.5490      2.00000
      7       7.5379      1.99666
      8       8.0368      1.15557
      9      14.0325      0.00000
     10      14.0325      0.00000

 k-point   150 :       0.3529    0.3529    0.2941
  band No.  band energies     occupation 
      1      -0.1127      2.00000
      2       2.4748      2.00000
      3       2.4748      2.00000
      4       3.4909      2.00000
      5       5.0374      2.00000
      6       6.0381      2.00000
      7       6.0381      2.00000
      8       8.5361      0.00519
      9      13.6291      0.00000
     10      14.5776      0.00000

 k-point   151 :       0.4118    0.3529    0.2941
  band No.  band energies     occupation 
      1       0.2865      2.00000
      2       1.8409      2.00000
      3       2.8660      2.00000
      4       3.8629      2.00000
      5       4.4309      2.00000
      6       5.4186      2.00000
      7       6.4223      2.00000
      8       7.9228      2.00769
      9      13.9911      0.00000
     10      14.8901      0.00000

 k-point   152 :       0.4706    0.3529    0.2941
  band No.  band energies     occupation 
      1       0.7457      2.00000
      2       1.2641      2.00000
      3       3.3140      2.00000
      4       3.8058      2.00000
      5       4.3690      2.00000
      6       4.8577      2.00000
      7       6.8649      2.00000
      8       7.3654      1.99994
      9      14.3961      0.00000
     10      14.8153      0.00000

 k-point   153 :       0.4118    0.4118    0.2941
  band No.  band energies     occupation 
      1       0.6846      2.00000
      2       2.2345      2.00000
      3       2.2345      2.00000
      4       3.7472      2.00000
      5       4.3088      2.00000
      6       5.8031      2.00000
      7       5.8031      2.00000
      8       7.3077      1.99999
      9      14.3570      0.00000
     10      15.6786      0.00000

 k-point   154 :       0.4706    0.4118    0.2941
  band No.  band energies     occupation 
      1       1.1425      2.00000
      2       1.6595      2.00000
      3       2.6866      2.00000
      4       3.1952      2.00000
      5       4.7386      2.00000
      6       5.2411      2.00000
      7       6.2468      2.00000
      8       6.7487      2.00000
      9      14.7682      0.00000
     10      15.2178      0.00000

 k-point   155 :       0.4706    0.4706    0.2941
  band No.  band energies     occupation 
      1       1.5989      2.00000
      2       2.1140      2.00000
      3       2.1140      2.00000
      4       2.6267      2.00000
      5       5.1818      2.00000
      6       5.6853      2.00000
      7       5.6853      2.00000
      8       6.1883      2.00000
      9      15.1816      0.00000
     10      15.6348      0.00000

 k-point   156 :       0.3529    0.3529    0.3529
  band No.  band energies     occupation 
      1       0.2252      2.00000
      2       2.8058      2.00000
      3       2.8058      2.00000
      4       2.8058      2.00000
      5       5.3608      2.00000
      6       5.3608      2.00000
      7       5.3608      2.00000
      8       7.8662      2.10253
      9      14.8901      0.00000
     10      14.8901      0.00000

 k-point   157 :       0.4118    0.3529    0.3529
  band No.  band energies     occupation 
      1       0.6235      2.00000
      2       2.1740      2.00000
      3       3.1943      2.00000
      4       3.1943      2.00000
      5       4.7406      2.00000
      6       4.7406      2.00000
      7       5.7456      2.00000
      8       7.2509      2.00000
      9      15.2405      0.00000
     10      15.2405      0.00000

 k-point   158 :       0.4706    0.3529    0.3529
  band No.  band energies     occupation 
      1       1.0816      2.00000
      2       1.5988      2.00000
      3       3.6282      2.00000
      4       3.6282      2.00000
      5       4.1906      2.00000
      6       4.1906      2.00000
      7       6.1895      2.00000
      8       6.6916      2.00000
      9      15.6069      0.00000
     10      15.6069      0.00000

 k-point   159 :       0.4118    0.4118    0.3529
  band No.  band energies     occupation 
      1       1.0207      2.00000
      2       2.5662      2.00000
      3       2.5662      2.00000
      4       3.5690      2.00000
      5       4.1310      2.00000
      6       5.1245      2.00000
      7       5.1245      2.00000
      8       6.6336      2.00000
      9      15.6005      0.00000
     10      16.5036      0.00000

 k-point   160 :       0.4706    0.4118    0.3529
  band No.  band energies     occupation 
      1       1.4775      2.00000
      2       1.9931      2.00000
      3       3.0156      2.00000
      4       3.5106      2.00000
      5       4.0701      2.00000
      6       4.5620      2.00000
      7       5.5692      2.00000
      8       6.0727      2.00000
      9      15.9948      0.00000
     10      16.4013      0.00000

 k-point   161 :       0.4706    0.4706    0.3529
  band No.  band energies     occupation 
      1       1.9326      2.00000
      2       2.4461      2.00000
      3       2.4461      2.00000
      4       2.9560      2.00000
      5       4.5023      2.00000
      6       5.0060      2.00000
      7       5.0060      2.00000
      8       5.5103      2.00000
      9      16.3958      0.00000
     10      16.8189      0.00000

 k-point   162 :       0.4118    0.4118    0.4118
  band No.  band energies     occupation 
      1       1.4167      2.00000
      2       2.9557      2.00000
      3       2.9557      2.00000
      4       2.9557      2.00000
      5       4.5029      2.00000
      6       4.5029      2.00000
      7       4.5029      2.00000
      8       6.0144      2.00000
      9      16.8680      0.00000
     10      16.8680      0.00000

 k-point   163 :       0.4706    0.4118    0.4118
  band No.  band energies     occupation 
      1       1.8721      2.00000
      2       2.3858      2.00000
      3       3.3921      2.00000
      4       3.3921      2.00000
      5       3.9503      2.00000
      6       3.9503      2.00000
      7       4.9473      2.00000
      8       5.4518      2.00000
      9      17.2242      0.00000
     10      17.2242      0.00000

 k-point   164 :       0.4706    0.4706    0.4118
  band No.  band energies     occupation 
      1       2.3257      2.00000
      2       2.8361      2.00000
      3       2.8361      2.00000
      4       3.3330      2.00000
      5       3.8899      2.00000
      6       4.3837      2.00000
      7       4.3837      2.00000
      8       4.8881      2.00000
      9      17.6097      0.00000
     10      17.9575      0.00000

 k-point   165 :       0.4706    0.4706    0.4706
  band No.  band energies     occupation 
      1       2.7762      2.00000
      2       3.2737      2.00000
      3       3.2737      2.00000
      4       3.2737      2.00000
      5       3.8297      2.00000
      6       3.8297      2.00000
      7       3.8297      2.00000
      8       4.3242      2.00000
      9      18.7635      0.00000
     10      18.7757      0.00000


--------------------------------------------------------------------------------------------------------


 soft charge-density along one line, spin component           1
         0         1         2         3         4         5         6         7         8         9
 total charge-density along one line
 
 pseudopotential strength for first ion, spin component:           1
  8.443  14.390   0.000   0.000   0.000   0.000   0.000   0.000
 14.390  24.525   0.000   0.000   0.000   0.000   0.000   0.000
  0.000   0.000   1.988   0.000   0.000   5.731   0.000   0.000
  0.000   0.000   0.000   1.988   0.000   0.000   5.731   0.000
  0.000   0.000   0.000   0.000   1.988   0.000   0.000   5.731
  0.000   0.000   5.731   0.000   0.000  16.436   0.000   0.000
  0.000   0.000   0.000   5.731   0.000   0.000  16.436   0.000
  0.000   0.000   0.000   0.000   5.731   0.000   0.000  16.436
 total augmentation occupancy for first ion, spin component:           1
  3.364  -0.830   0.000   0.000   0.000   0.000   0.000   0.000
 -0.830   0.272   0.000   0.000   0.000   0.000   0.000   0.000
  0.000   0.000   1.105   0.000   0.000  -0.070   0.000   0.000
  0.000   0.000   0.000   1.105   0.000   0.000  -0.070   0.000
  0.000   0.000   0.000   0.000   1.105   0.000   0.000  -0.070
  0.000   0.000  -0.070   0.000   0.000   0.005   0.000   0.000
  0.000   0.000   0.000  -0.070   0.000   0.000   0.005   0.000
  0.000   0.000   0.000   0.000  -0.070   0.000   0.000   0.005


------------------------ aborting loop because EDIFF is reached ----------------------------------------


    CHARGE:  cpu time    0.0680: real time    0.0681
    FORLOC:  cpu time    0.0010: real time    0.0009
    FORNL :  cpu time    0.1420: real time    0.1434
    STRESS:  cpu time    0.3539: real time    0.3540
    FORCOR:  cpu time    0.0150: real time    0.0153
    FORHAR:  cpu time    0.0040: real time    0.0041
    MIXING:  cpu time    0.0010: real time    0.0006
    OFIELD:  cpu time    0.0000: real time    0.0000

  FORCE on cell =-STRESS in cart. coord.  units (eV):
  Direction    XX          YY          ZZ          XY          YZ          ZX
  --------------------------------------------------------------------------------------
  Alpha Z    -0.81591    -0.81591    -0.81591
  Ewald     -98.08737   -98.08737   -98.08737     0.00000     0.00000     0.00000
  Hartree     0.14021     0.14021     0.14021     0.00000     0.00000     0.00000
  E(xc)     -34.27498   -34.27498   -34.27498     0.00000     0.00000     0.00000
  Local       1.44305     1.44305     1.44305     0.00000     0.00000     0.00000
  n-local    74.31342    75.23432    77.17812     0.28724     1.01472     0.43457
  augment    -4.11947    -4.11947    -4.11947     0.00000     0.00000     0.00000
  Kinetic    57.44761    59.33722    63.63471     1.59476    -8.24140    -1.81028
  Fock        0.00000     0.00000     0.00000     0.00000     0.00000     0.00000
  -------------------------------------------------------------------------------------
  Total       0.00067     0.00067     0.00067     0.00000     0.00000     0.00000
  in kB       0.01619     0.01619     0.01619     0.00000     0.00000     0.00000
  external pressure =        0.02 kB  Pullay stress =        0.00 kB


 VOLUME and BASIS-vectors are now :
 -----------------------------------------------------------------------------
  energy-cutoff  :      500.00
  volume of cell :       65.87
      direct lattice vectors                 reciprocal lattice vectors
     4.038505910  0.000000000  0.000000000     0.247616327  0.000000000  0.000000000
     0.000000000  4.038505910  0.000000000     0.000000000  0.247616327  0.000000000
     0.000000000  0.000000000  4.038505910     0.000000000  0.000000000  0.247616327

  length of vectors
     4.038505910  4.038505910  4.038505910     0.247616327  0.247616327  0.247616327


 FORCES acting on ions
    electron-ion (+dipol)            ewald-force                    non-local-force                 convergence-correction
 -----------------------------------------------------------------------------------------------
   -.519E-14 -.148E-16 -.176E-14   -.897E-15 -.772E-15 -.153E-15   -.161E-26 -.485E-26 -.323E-26   -.915E-15 -.211E-16 0.137E-15
   0.218E-14 -.796E-14 -.197E-13   0.130E-15 0.212E-15 -.164E-15   -.162E-26 -.162E-26 0.182E-26   0.901E-15 0.383E-16 0.136E-15
   0.198E-14 0.311E-15 0.228E-13   0.551E-15 -.172E-15 0.194E-15   -.242E-26 0.807E-27 0.162E-26   0.901E-15 -.395E-16 -.136E-15
   -.550E-14 -.289E-14 -.274E-14   0.236E-15 0.812E-15 0.182E-15   -.808E-27 0.808E-27 -.145E-26   -.919E-15 0.228E-16 -.140E-15
 -----------------------------------------------------------------------------------------------
   -.653E-14 -.106E-13 -.136E-14   0.203E-16 0.804E-16 0.596E-16   -.646E-26 -.485E-26 -.125E-26   -.320E-16 0.492E-18 -.251E-17
 
 
 POSITION                                       TOTAL-FORCE (eV/Angst)
 -----------------------------------------------------------------------------------
      0.00000      0.00000      0.00000         0.000000      0.000000      0.000000
      2.01925      2.01925      0.00000         0.000000      0.000000      0.000000
      2.01925      0.00000      2.01925         0.000000      0.000000      0.000000
      0.00000      2.01925      2.01925         0.000000      0.000000      0.000000
 -----------------------------------------------------------------------------------
    total drift:                                0.000000      0.000000      0.000000


--------------------------------------------------------------------------------------------------------



  FREE ENERGIE OF THE ION-ELECTRON SYSTEM (eV)
  ---------------------------------------------------
  free  energy   TOTEN  =       -14.98101535 eV

  energy  without entropy=      -14.97966598  energy(sigma->0) =      -14.98067801
 
 d Force = 0.0000000E+00[ 0.000E+00, 0.000E+00]  d Energy = 0.2050653E-04-0.205E-04
 d Force = 0.0000000E+00[ 0.000E+00, 0.000E+00]  d Ewald  =-0.1124801E+00 0.112E+00


--------------------------------------------------------------------------------------------------------


    POTLOK:  cpu time    0.0170: real time    0.0174


--------------------------------------------------------------------------------------------------------




--------------------------------------------------------------------------------------------------------


  
 reached required accuracy - stopping structural energy minimisation
 writing wavefunctions
     LOOP+:  cpu time    6.1941: real time    6.4214
    4ORBIT:  cpu time    0.0000: real time    0.0000

 total amount of memory used by VASP on root node    38983. kBytes
========================================================================

   base      :      30000. kBytes
   nonl-proj :       3144. kBytes
   fftplans  :        759. kBytes
   grid      :       1065. kBytes
   one-center:          3. kBytes
   wavefun   :       4012. kBytes
 
  
  
 General timing and accounting informations for this job:
 ========================================================
  
                  Total CPU time used (sec):       27.261
                            User time (sec):       26.542
                          System time (sec):        0.719
                         Elapsed time (sec):       27.929
  
                   Maximum memory used (kb):      108260.
                   Average memory used (kb):           0.
  
                          Minor page faults:         8022
                          Major page faults:            0
                 Voluntary context switches:         1655
